# vtk DataFile Version 2.0
Square plate test
ASCII
DATASET UNSTRUCTURED_GRID
POINTS 1089 float
0 0.000000000 0
0.031250000 0.000000000 0
0.062500000 0.000000000 0
0.093750000 0.000000000 0
0.125000000 0.000000000 0
0.156250000 0.000000000 0
0.187500000 0.000000000 0
0.218750000 0.000000000 0
0.250000000 0.000000000 0
0.281250000 0.000000000 0
0.312500000 0.000000000 0
0.343750000 0.000000000 0
0.375000000 0.000000000 0
0.406250000 0.000000000 0
0.437500000 0.000000000 0
0.468750000 0.000000000 0
0.500000000 0.000000000 0
0.531250000 0.000000000 0
0.562500000 0.000000000 0
0.593750000 0.000000000 0
0.625000000 0.000000000 0
0.656250000 0.000000000 0
0.687500000 0.000000000 0
0.718750000 0.000000000 0
0.750000000 0.000000000 0
0.781250000 0.000000000 0
0.812500000 0.000000000 0
0.843750000 0.000000000 0
0.875000000 0.000000000 0
0.906250000 0.000000000 0
0.937500000 0.000000000 0
0.968750000 0.000000000 0
1.000000000 0.000000000 0
0.000000000 0.031250000 0
0.031250000 0.031250000 0
0.062500000 0.031250000 0
0.093750000 0.031250000 0
0.125000000 0.031250000 0
0.156250000 0.031250000 0
0.187500000 0.031250000 0
0.218750000 0.031250000 0
0.250000000 0.031250000 0
0.281250000 0.031250000 0
0.312500000 0.031250000 0
0.343750000 0.031250000 0
0.375000000 0.031250000 0
0.406250000 0.031250000 0
0.437500000 0.031250000 0
0.468750000 0.031250000 0
0.500000000 0.031250000 0
0.531250000 0.031250000 0
0.562500000 0.031250000 0
0.593750000 0.031250000 0
0.625000000 0.031250000 0
0.656250000 0.031250000 0
0.687500000 0.031250000 0
0.718750000 0.031250000 0
0.750000000 0.031250000 0
0.781250000 0.031250000 0
0.812500000 0.031250000 0
0.843750000 0.031250000 0
0.875000000 0.031250000 0
0.906250000 0.031250000 0
0.937500000 0.031250000 0
0.968750000 0.031250000 0
1.000000000 0.031250000 0
0.000000000 0.062500000 0
0.031250000 0.062500000 0
0.062500000 0.062500000 0
0.093750000 0.062500000 0
0.125000000 0.062500000 0
0.156250000 0.062500000 0
0.187500000 0.062500000 0
0.218750000 0.062500000 0
0.250000000 0.062500000 0
0.281250000 0.062500000 0
0.312500000 0.062500000 0
0.343750000 0.062500000 0
0.375000000 0.062500000 0
0.406250000 0.062500000 0
0.437500000 0.062500000 0
0.468750000 0.062500000 0
0.500000000 0.062500000 0
0.531250000 0.062500000 0
0.562500000 0.062500000 0
0.593750000 0.062500000 0
0.625000000 0.062500000 0
0.656250000 0.062500000 0
0.687500000 0.062500000 0
0.718750000 0.062500000 0
0.750000000 0.062500000 0
0.781250000 0.062500000 0
0.812500000 0.062500000 0
0.843750000 0.062500000 0
0.875000000 0.062500000 0
0.906250000 0.062500000 0
0.937500000 0.062500000 0
0.968750000 0.062500000 0
1.000000000 0.062500000 0
0.000000000 0.093750000 0
0.031250000 0.093750000 0
0.062500000 0.093750000 0
0.093750000 0.093750000 0
0.125000000 0.093750000 0
0.156250000 0.093750000 0
0.187500000 0.093750000 0
0.218750000 0.093750000 0
0.250000000 0.093750000 0
0.281250000 0.093750000 0
0.312500000 0.093750000 0
0.343750000 0.093750000 0
0.375000000 0.093750000 0
0.406250000 0.093750000 0
0.437500000 0.093750000 0
0.468750000 0.093750000 0
0.500000000 0.093750000 0
0.531250000 0.093750000 0
0.562500000 0.093750000 0
0.593750000 0.093750000 0
0.625000000 0.093750000 0
0.656250000 0.093750000 0
0.687500000 0.093750000 0
0.718750000 0.093750000 0
0.750000000 0.093750000 0
0.781250000 0.093750000 0
0.812500000 0.093750000 0
0.843750000 0.093750000 0
0.875000000 0.093750000 0
0.906250000 0.093750000 0
0.937500000 0.093750000 0
0.968750000 0.093750000 0
1.000000000 0.093750000 0
0.000000000 0.125000000 0
0.031250000 0.125000000 0
0.062500000 0.125000000 0
0.093750000 0.125000000 0
0.125000000 0.125000000 0
0.156250000 0.125000000 0
0.187500000 0.125000000 0
0.218750000 0.125000000 0
0.250000000 0.125000000 0
0.281250000 0.125000000 0
0.312500000 0.125000000 0
0.343750000 0.125000000 0
0.375000000 0.125000000 0
0.406250000 0.125000000 0
0.437500000 0.125000000 0
0.468750000 0.125000000 0
0.500000000 0.125000000 0
0.531250000 0.125000000 0
0.562500000 0.125000000 0
0.593750000 0.125000000 0
0.625000000 0.125000000 0
0.656250000 0.125000000 0
0.687500000 0.125000000 0
0.718750000 0.125000000 0
0.750000000 0.125000000 0
0.781250000 0.125000000 0
0.812500000 0.125000000 0
0.843750000 0.125000000 0
0.875000000 0.125000000 0
0.906250000 0.125000000 0
0.937500000 0.125000000 0
0.968750000 0.125000000 0
1.000000000 0.125000000 0
0.000000000 0.156250000 0
0.031250000 0.156250000 0
0.062500000 0.156250000 0
0.093750000 0.156250000 0
0.125000000 0.156250000 0
0.156250000 0.156250000 0
0.187500000 0.156250000 0
0.218750000 0.156250000 0
0.250000000 0.156250000 0
0.281250000 0.156250000 0
0.312500000 0.156250000 0
0.343750000 0.156250000 0
0.375000000 0.156250000 0
0.406250000 0.156250000 0
0.437500000 0.156250000 0
0.468750000 0.156250000 0
0.500000000 0.156250000 0
0.531250000 0.156250000 0
0.562500000 0.156250000 0
0.593750000 0.156250000 0
0.625000000 0.156250000 0
0.656250000 0.156250000 0
0.687500000 0.156250000 0
0.718750000 0.156250000 0
0.750000000 0.156250000 0
0.781250000 0.156250000 0
0.812500000 0.156250000 0
0.843750000 0.156250000 0
0.875000000 0.156250000 0
0.906250000 0.156250000 0
0.937500000 0.156250000 0
0.968750000 0.156250000 0
1.000000000 0.156250000 0
0.000000000 0.187500000 0
0.031250000 0.187500000 0
0.062500000 0.187500000 0
0.093750000 0.187500000 0
0.125000000 0.187500000 0
0.156250000 0.187500000 0
0.187500000 0.187500000 0
0.218750000 0.187500000 0
0.250000000 0.187500000 0
0.281250000 0.187500000 0
0.312500000 0.187500000 0
0.343750000 0.187500000 0
0.375000000 0.187500000 0
0.406250000 0.187500000 0
0.437500000 0.187500000 0
0.468750000 0.187500000 0
0.500000000 0.187500000 0
0.531250000 0.187500000 0
0.562500000 0.187500000 0
0.593750000 0.187500000 0
0.625000000 0.187500000 0
0.656250000 0.187500000 0
0.687500000 0.187500000 0
0.718750000 0.187500000 0
0.750000000 0.187500000 0
0.781250000 0.187500000 0
0.812500000 0.187500000 0
0.843750000 0.187500000 0
0.875000000 0.187500000 0
0.906250000 0.187500000 0
0.937500000 0.187500000 0
0.968750000 0.187500000 0
1.000000000 0.187500000 0
0.000000000 0.218750000 0
0.031250000 0.218750000 0
0.062500000 0.218750000 0
0.093750000 0.218750000 0
0.125000000 0.218750000 0
0.156250000 0.218750000 0
0.187500000 0.218750000 0
0.218750000 0.218750000 0
0.250000000 0.218750000 0
0.281250000 0.218750000 0
0.312500000 0.218750000 0
0.343750000 0.218750000 0
0.375000000 0.218750000 0
0.406250000 0.218750000 0
0.437500000 0.218750000 0
0.468750000 0.218750000 0
0.500000000 0.218750000 0
0.531250000 0.218750000 0
0.562500000 0.218750000 0
0.593750000 0.218750000 0
0.625000000 0.218750000 0
0.656250000 0.218750000 0
0.687500000 0.218750000 0
0.718750000 0.218750000 0
0.750000000 0.218750000 0
0.781250000 0.218750000 0
0.812500000 0.218750000 0
0.843750000 0.218750000 0
0.875000000 0.218750000 0
0.906250000 0.218750000 0
0.937500000 0.218750000 0
0.968750000 0.218750000 0
1.000000000 0.218750000 0
0.000000000 0.250000000 0
0.031250000 0.250000000 0
0.062500000 0.250000000 0
0.093750000 0.250000000 0
0.125000000 0.250000000 0
0.156250000 0.250000000 0
0.187500000 0.250000000 0
0.218750000 0.250000000 0
0.250000000 0.250000000 0
0.281250000 0.250000000 0
0.312500000 0.250000000 0
0.343750000 0.250000000 0
0.375000000 0.250000000 0
0.406250000 0.250000000 0
0.437500000 0.250000000 0
0.468750000 0.250000000 0
0.500000000 0.250000000 0
0.531250000 0.250000000 0
0.562500000 0.250000000 0
0.593750000 0.250000000 0
0.625000000 0.250000000 0
0.656250000 0.250000000 0
0.687500000 0.250000000 0
0.718750000 0.250000000 0
0.750000000 0.250000000 0
0.781250000 0.250000000 0
0.812500000 0.250000000 0
0.843750000 0.250000000 0
0.875000000 0.250000000 0
0.906250000 0.250000000 0
0.937500000 0.250000000 0
0.968750000 0.250000000 0
1.000000000 0.250000000 0
0.000000000 0.281250000 0
0.031250000 0.281250000 0
0.062500000 0.281250000 0
0.093750000 0.281250000 0
0.125000000 0.281250000 0
0.156250000 0.281250000 0
0.187500000 0.281250000 0
0.218750000 0.281250000 0
0.250000000 0.281250000 0
0.281250000 0.281250000 0
0.312500000 0.281250000 0
0.343750000 0.281250000 0
0.375000000 0.281250000 0
0.406250000 0.281250000 0
0.437500000 0.281250000 0
0.468750000 0.281250000 0
0.500000000 0.281250000 0
0.531250000 0.281250000 0
0.562500000 0.281250000 0
0.593750000 0.281250000 0
0.625000000 0.281250000 0
0.656250000 0.281250000 0
0.687500000 0.281250000 0
0.718750000 0.281250000 0
0.750000000 0.281250000 0
0.781250000 0.281250000 0
0.812500000 0.281250000 0
0.843750000 0.281250000 0
0.875000000 0.281250000 0
0.906250000 0.281250000 0
0.937500000 0.281250000 0
0.968750000 0.281250000 0
1.000000000 0.281250000 0
0.000000000 0.312500000 0
0.031250000 0.312500000 0
0.062500000 0.312500000 0
0.093750000 0.312500000 0
0.125000000 0.312500000 0
0.156250000 0.312500000 0
0.187500000 0.312500000 0
0.218750000 0.312500000 0
0.250000000 0.312500000 0
0.281250000 0.312500000 0
0.312500000 0.312500000 0
0.343750000 0.312500000 0
0.375000000 0.312500000 0
0.406250000 0.312500000 0
0.437500000 0.312500000 0
0.468750000 0.312500000 0
0.500000000 0.312500000 0
0.531250000 0.312500000 0
0.562500000 0.312500000 0
0.593750000 0.312500000 0
0.625000000 0.312500000 0
0.656250000 0.312500000 0
0.687500000 0.312500000 0
0.718750000 0.312500000 0
0.750000000 0.312500000 0
0.781250000 0.312500000 0
0.812500000 0.312500000 0
0.843750000 0.312500000 0
0.875000000 0.312500000 0
0.906250000 0.312500000 0
0.937500000 0.312500000 0
0.968750000 0.312500000 0
1.000000000 0.312500000 0
0.000000000 0.343750000 0
0.031250000 0.343750000 0
0.062500000 0.343750000 0
0.093750000 0.343750000 0
0.125000000 0.343750000 0
0.156250000 0.343750000 0
0.187500000 0.343750000 0
0.218750000 0.343750000 0
0.250000000 0.343750000 0
0.281250000 0.343750000 0
0.312500000 0.343750000 0
0.343750000 0.343750000 0
0.375000000 0.343750000 0
0.406250000 0.343750000 0
0.437500000 0.343750000 0
0.468750000 0.343750000 0
0.500000000 0.343750000 0
0.531250000 0.343750000 0
[...]
POINT_DATA 1089
VECTORS y float
0 0 1.000000000
0 0 0.878906250
0 0 0.765625000
0 0 0.660156250
0 0 0.562500000
0 0 0.472656250
0 0 0.390625000
0 0 0.316406250
0 0 0.250000000
0 0 0.191406250
0 0 0.140625000
0 0 0.097656250
0 0 0.062500000
0 0 0.035156250
0 0 0.015625000
0 0 0.003906250
0 0 0.000000000
0 0 0.000000000
0 0 0.000000000
0 0 0.000000000
0 0 0.000000000
0 0 0.000000000
0 0 0.000000000
0 0 0.000000000
0 0 0.000000000
0 0 0.000000000
0 0 0.000000000
0 0 0.000000000
0 0 0.000000000
0 0 0.000000000
0 0 0.000000000
0 0 0.000000000
0 0 0.000000000
0 0 0.878906250
0 0 0.172430817
0 0 0.127615189
0 0 0.097648979
0 0 0.080806196
0 0 0.063574780
0 0 0.053591391
0 0 0.040349008
0 0 0.031703774
0 0 0.022476878
0 0 0.015873228
0 0 0.009920606
0 0 0.005778126
0 0 0.002672402
0 0 0.000925001
0 0 0.000070991
0 0 -0.000078702
0 0 -0.000048862
0 0 -0.000005565
0 0 -0.000002569
0 0 0.000002397
0 0 -0.000000322
0 0 0.000000908
0 0 -0.000000342
0 0 0.000000259
0 0 -0.000000189
0 0 0.000000104
0 0 -0.000000077
0 0 0.000000050
0 0 -0.000000036
0 0 0.000000046
0 0 -0.000000012
0 0 0.000000000
0 0 0.765625000
0 0 0.127615189
0 0 0.334127146
0 0 0.250013478
0 0 0.215495090
0 0 0.167225657
0 0 0.138627167
0 0 0.110069936
0 0 0.085862553
0 0 0.064650270
0 0 0.046510616
0 0 0.031619933
0 0 0.019755964
0 0 0.010967820
0 0 0.005010980
0 0 0.001614078
0 0 0.000190660
0 0 -0.000109215
0 0 -0.000067470
0 0 -0.000018069
0 0 -0.000000561
0 0 0.000001874
0 0 0.000001347
0 0 0.000000448
0 0 0.000000129
0 0 -0.000000042
0 0 -0.000000017
0 0 -0.000000026
0 0 0.000000005
0 0 -0.000000008
0 0 0.000000021
0 0 0.000000029
0 0 0.000000000
0 0 0.660156250
0 0 0.097648979
0 0 0.250013478
0 0 0.279158631
0 0 0.246970608
0 0 0.201264512
0 0 0.163117083
0 0 0.130334948
0 0 0.103214694
0 0 0.078793173
0 0 0.058462086
0 0 0.040937545
0 0 0.027042044
0 0 0.016150142
0 0 0.008505135
0 0 0.003601507
0 0 0.001098162
0 0 0.000121825
0 0 -0.000076189
0 0 -0.000061820
0 0 -0.000019344
0 0 -0.000003897
0 0 0.000002095
0 0 0.000000974
0 0 0.000000880
0 0 -0.000000010
0 0 0.000000106
0 0 -0.000000104
0 0 0.000000030
0 0 -0.000000041
0 0 0.000000040
0 0 0.000000017
0 0 0.000000000
0 0 0.562500000
0 0 0.080806196
0 0 0.215495090
0 0 0.246970608
0 0 0.256761765
0 0 0.220224527
0 0 0.183438326
0 0 0.146365411
0 0 0.116419367
0 0 0.090014314
0 0 0.067785734
0 0 0.048784468
0 0 0.033262032
0 0 0.020976743
0 0 0.011937895
0 0 0.005862844
0 0 0.002360468
0 0 0.000688161
0 0 0.000078556
0 0 -0.000060907
0 0 -0.000047103
0 0 -0.000018966
0 0 -0.000003145
0 0 0.000000871
0 0 0.000001328
0 0 0.000000540
0 0 0.000000220
0 0 -0.000000021
0 0 -0.000000006
0 0 -0.000000034
0 0 0.000000017
0 0 0.000000034
0 0 0.000000000
0 0 0.472656250
0 0 0.063574780
0 0 0.167225657
0 0 0.201264512
0 0 0.220224527
0 0 0.208838405
0 0 0.181519167
0 0 0.148639367
0 0 0.118721385
0 0 0.092596778
0 0 0.070661263
0 0 0.051915492
0 0 0.036506556
0 0 0.024042861
0 0 0.014628175
0 0 0.007966127
0 0 0.003805421
0 0 0.001511512
0 0 0.000448580
0 0 0.000046640
0 0 -0.000043704
0 0 -0.000037160
0 0 -0.000014996
0 0 -0.000003535
0 0 0.000000768
0 0 0.000000901
0 0 0.000000604
0 0 0.000000137
0 0 0.000000046
0 0 -0.000000037
0 0 0.000000006
0 0 0.000000016
0 0 0.000000000
0 0 0.390625000
0 0 0.053591391
0 0 0.138627167
0 0 0.163117083
0 0 0.183438326
0 0 0.181519167
0 0 0.168407569
0 0 0.143261658
0 0 0.116994403
0 0 0.092062261
0 0 0.070891421
0 0 0.052837538
0 0 0.037950408
0 0 0.025834890
0 0 0.016476308
0 0 0.009660030
0 0 0.005147572
0 0 0.002435284
0 0 0.000976442
0 0 0.000287947
0 0 0.000029829
0 0 -0.000032476
0 0 -0.000026880
0 0 -0.000012110
0 0 -0.000002852
0 0 0.000000268
0 0 0.000000785
0 0 0.000000434
0 0 0.000000176
0 0 0.000000019
0 0 0.000000004
0 0 0.000000011
0 0 0.000000000
0 0 0.316406250
0 0 0.040349008
0 0 0.110069936
0 0 0.130334948
0 0 0.146365411
0 0 0.148639367
0 0 0.143261658
0 0 0.128177750
0 0 0.108258241
0 0 0.087144915
0 0 0.067927953
0 0 0.051299754
0 0 0.037503023
0 0 0.026225061
0 0 0.017392297
0 0 0.010787594
0 0 0.006226022
0 0 0.003298109
0 0 0.001567169
0 0 0.000627839
0 0 0.000186524
0 0 0.000017566
0 0 -0.000022722
0 0 -0.000019644
0 0 -0.000008990
0 0 -0.000002469
0 0 0.000000140
0 0 0.000000530
0 0 0.000000372
0 0 0.000000133
0 0 0.000000049
0 0 0.000000010
0 0 0.000000000
0 0 0.250000000
0 0 0.031703774
0 0 0.085862553
0 0 0.103214694
0 0 0.116419367
0 0 0.118721385
0 0 0.116994403
0 0 0.108258241
0 0 0.095192624
0 0 0.079048573
0 0 0.062985563
0 0 0.048296686
0 0 0.035854276
0 0 0.025602607
0 0 0.017498210
0 0 0.011339102
0 0 0.006946019
0 0 0.003991491
0 0 0.002119810
0 0 0.001006658
0 0 0.000405027
0 0 0.000119736
0 0 0.000010852
0 0 -0.000016126
0 0 -0.000013837
0 0 -0.000006700
0 0 -0.000001917
0 0 -0.000000020
0 0 0.000000391
0 0 0.000000267
0 0 0.000000146
0 0 0.000000054
0 0 0.000000000
0 0 0.191406250
0 0 0.022476878
0 0 0.064650270
0 0 0.078793173
0 0 0.090014314
0 0 0.092596778
0 0 0.092062261
0 0 0.087144915
0 0 0.079048573
0 0 0.068063056
0 0 0.055877143
0 0 0.043879979
0 0 0.033189240
0 0 0.024178030
0 0 0.016946885
0 0 0.011371260
0 0 0.007296386
0 0 0.004455439
0 0 0.002563732
0 0 0.001361036
0 0 0.000647554
0 0 0.000260527
0 0 0.000077241
0 0 0.000006411
0 0 -0.000011140
0 0 -0.000009750
0 0 -0.000004827
0 0 -0.000001510
0 0 -0.000000070
0 0 0.000000242
0 0 0.000000242
0 0 0.000000131
0 0 0.000000000
0 0 0.140625000
0 0 0.015873228
0 0 0.046510616
0 0 0.058462086
0 0 0.067785734
0 0 0.070661263
0 0 0.070891421
0 0 0.067927953
0 0 0.062985563
0 0 0.055877143
0 0 0.047424997
0 0 0.038375716
0 0 0.029767897
0 0 0.022174890
0 0 0.015913096
0 0 0.010991879
0 0 0.007317173
0 0 0.004683103
0 0 0.002861481
0 0 0.001645825
0 0 0.000874465
0 0 0.000416112
0 0 0.000167830
0 0 0.000049635
0 0 0.000003862
0 0 -0.000007707
0 0 -0.000006760
0 0 -0.000003477
0 0 -0.000001145
0 0 -0.000000126
0 0 0.000000201
0 0 0.000000199
0 0 0.000000000
0 0 0.097656250
0 0 0.009920606
0 0 0.031619933
0 0 0.040937545
0 0 0.048784468
0 0 0.051915492
0 0 0.052837538
0 0 0.051299754
0 0 0.048296686
0 0 0.043879979
0 0 0.038375716
0 0 0.032110278
0 0 0.025699091
0 0 0.019696559
0 0 0.014509541
0 0 0.010301487
0 0 0.007073798
0 0 0.004699787
0 0 0.003008265
0 0 0.001837247
0 0 0.001056904
0 0 0.000561578
0 0 0.000267558
0 0 0.000108006
0 0 0.000031952
0 0 0.000002281
0 0 -0.000005269
0 0 -0.000004684
0 0 -0.000002479
0 0 -0.000000885
0 0 -0.000000123
0 0 0.000000143
0 0 0.000000000
0 0 0.062500000
0 0 0.005778126
0 0 0.019755964
0 0 0.027042044
0 0 0.033262032
0 0 0.036506556
0 0 0.037950408
0 0 0.037503023
0 0 0.035854276
0 0 0.033189240
0 0 0.029767897
0 0 0.025699091
0 0 0.021282621
0 0 0.016866841
0 0 0.012819537
0 0 0.009374578
0 0 0.006629525
0 0 0.004546687
0 0 0.003020388
0 0 0.001932229
0 0 0.001179827
0 0 0.000678587
0 0 0.000360746
0 0 0.000172000
0 0 0.000069548
0 0 0.000020561
0 0 0.000001361
0 0 -0.000003587
0 0 -0.000003242
0 0 -0.000001753
0 0 -0.000000748
0 0 -0.000000136
0 0 0.000000000
0 0 0.035156250
0 0 0.002672402
0 0 0.010967820
0 0 0.016150142
0 0 0.020976743
0 0 0.024042861
0 0 0.025834890
0 0 0.026225061
0 0 0.025602607
0 0 0.024178030
0 0 0.022174890
0 0 0.019696559
0 0 0.016866841
0 0 0.013863592
0 0 0.010922796
0 0 0.008263811
0 0 0.006030202
0 0 0.004262598
0 0 0.002923332
0 0 0.001941044
0 0 0.001241212
0 0 0.000757611
0 0 0.000435753
0 0 0.000231736
0 0 0.000110607
0 0 0.000044806
0 0 0.000013249
0 0 0.000000841
0 0 -0.000002463
0 0 -0.000002184
0 0 -0.000001461
0 0 -0.000000642
0 0 0.000000000
0 0 0.015625000
0 0 0.000925001
0 0 0.005010980
0 0 0.008505135
0 0 0.011937895
0 0 0.014628175
0 0 0.016476308
0 0 0.017392297
0 0 0.017498210
0 0 0.016946885
0 0 0.015913096
0 0 0.014509541
0 0 0.012819537
0 0 0.010922796
0 0 0.008942861
0 0 0.007027175
0 0 0.005311599
0 0 0.003876761
0 0 0.002741167
0 0 0.001879540
0 0 0.001247482
0 0 0.000797342
0 0 0.000486545
0 0 0.000279850
0 0 0.000148903
0 0 0.000071189
0 0 0.000028895
0 0 0.000008628
0 0 0.000000494
0 0 -0.000001565
0 0 -0.000001836
0 0 -0.000001193
0 0 0.000000000
0 0 0.003906250
0 0 0.000070991
0 0 0.001614078
0 0 0.003601507
0 0 0.005862844
0 0 0.007966127
0 0 0.009660030
0 0 0.010787594
0 0 0.011339102
0 0 0.011371260
0 0 0.010991879
0 0 0.010301487
0 0 0.009374578
0 0 0.008263811
0 0 0.007027175
0 0 0.005745532
0 0 0.004513399
0 0 0.003413054
0 0 0.002492450
0 0 0.001762679
0 0 0.001208448
0 0 0.000801769
0 0 0.000512249
0 0 0.000312511
0 0 0.000179764
0 0 0.000095762
0 0 0.000045855
0 0 0.000018771
0 0 0.000005613
0 0 0.000000453
0 0 -0.000001410
0 0 -0.000001469
0 0 0.000000000
0 0 0.000000000
0 0 -0.000078702
0 0 0.000190660
0 0 0.001098162
0 0 0.002360468
0 0 0.003805421
0 0 0.005147572
0 0 0.006226022
0 0 0.006946019
0 0 0.007296386
0 0 0.007317173
0 0 0.007073798
0 0 0.006629525
0 0 0.006030202
0 0 0.005311599
0 0 0.004513399
0 0 0.003689144
0 0 0.002898720
0 0 0.002193178
0 0 0.001602358
0 0 0.001133438
0 0 0.000776985
0 0 0.000515342
0 0 0.000329157
0 0 0.000200782
0 0 0.000115585
0 0 0.000061659
0 0 0.000029724
0 0 0.000012268
0 0 0.000003838
0 0 0.000000120
0 0 -0.000001098
0 0 0.000000000
0 0 0.000000000
0 0 -0.000048862
0 0 -0.000109215
0 0 0.000121825
0 0 0.000688161
0 0 0.001511512
0 0 0.002435284
0 0 0.003298109
0 0 0.003991491
0 0 0.004455439
0 0 0.004683103
0 0 0.004699787
0 0 0.004546687
0 0 0.004262598
0 0 0.003876761
0 0 0.003413054
0 0 0.002898720
0 0 0.002368905
0 0 0.001861771
0 0 0.001409273
0 0 0.001030092
0 0 0.000728812
0 0 0.000499582
0 0 0.000331286
0 0 0.000211555
0 0 0.000129095
0 0 0.000074416
0 0 0.000039876
0 0 0.000019439
0 0 0.000008134
0 0 0.000002744
0 0 0.000000136
0 0 0.000000000
0 0 0.000000000
0 0 -0.000005565
0 0 -0.000067470
0 0 -0.000076189
0 0 0.000078556
0 0 0.000448580
0 0 0.000976442
0 0 0.001567169
0 0 0.002119810
0 0 0.002563732
0 0 0.002861481
0 0 0.003008265
0 0 0.003020388
0 0 0.002923332
0 0 0.002741167
0 0 0.002492450
0 0 0.002193178
0 0 0.001861771
0 0 0.001521215
0 0 0.001195797
0 0 0.000905556
0 0 0.000662199
0 0 0.000468648
0 0 0.000321262
0 0 0.000213047
0 0 0.000136071
0 0 0.000083183
0 0 0.000048078
0 0 0.000026141
0 0 0.000012734
0 0 0.000006173
0 0 0.000002268
0 0 0.000000000
0 0 0.000000000
0 0 -0.000002569
0 0 -0.000018069
0 0 -0.000061820
0 0 -0.000060907
0 0 0.000046640
0 0 0.000287947
0 0 0.000627839
0 0 0.001006658
0 0 0.001361036
0 0 0.001645825
0 0 0.001837247
0 0 0.001932229
0 0 0.001941044
0 0 0.001879540
0 0 0.001762679
0 0 0.001602358
0 0 0.001409273
0 0 0.001195797
0 0 0.000976906
0 0 0.000768072
0 0 0.000581875
0 0 0.000425699
0 0 0.000301348
0 0 0.000206655
0 0 0.000137034
0 0 0.000087729
0 0 0.000053659
0 0 0.000031552
0 0 0.000016954
0 0 0.000009899
0 0 0.000005042
0 0 0.000000000
0 0 0.000000000
0 0 0.000002397
0 0 -0.000000561
0 0 -0.000019344
0 0 -0.000047103
0 0 -0.000043704
0 0 0.000029829
0 0 0.000186524
0 0 0.000405027
0 0 0.000647554
0 0 0.000874465
0 0 0.001056904
0 0 0.001179827
0 0 0.001241212
0 0 0.001247482
0 0 0.001208448
0 0 0.001133438
0 0 0.001030092
0 0 0.000905556
0 0 0.000768072
0 0 0.000627403
0 0 0.000493361
0 0 0.000373946
0 0 0.000273677
0 0 0.000193908
0 0 0.000132960
0 0 0.000088478
0 0 0.000056583
0 0 0.000035332
0 0 0.000020386
0 0 0.000013457
0 0 0.000008134
0 0 0.000000000
0 0 0.000000000
0 0 -0.000000322
0 0 0.000001874
0 0 -0.000003897
0 0 -0.000018966
0 0 -0.000037160
0 0 -0.000032476
0 0 0.000017566
0 0 0.000119736
0 0 0.000260527
0 0 0.000416112
0 0 0.000561578
0 0 0.000678587
0 0 0.000757611
0 0 0.000797342
0 0 0.000801769
0 0 0.000776985
0 0 0.000728812
0 0 0.000662199
0 0 0.000581875
0 0 0.000493361
0 0 0.000402920
0 0 0.000316929
0 0 0.000240248
0 0 0.000176030
0 0 0.000124663
0 0 0.000085859
0 0 0.000056966
0 0 0.000037278
0 0 0.000022698
0 0 0.000016374
0 0 0.000011086
0 0 0.000000000
0 0 0.000000000
0 0 0.000000908
0 0 0.000001347
0 0 0.000002095
0 0 -0.000003145
0 0 -0.000014996
0 0 -0.000026880
0 0 -0.000022722
0 0 0.000010852
0 0 0.000077241
0 0 0.000167830
0 0 0.000267558
0 0 0.000360746
0 0 0.000435753
0 0 0.000486545
0 0 0.000512249
0 0 0.000515342
0 0 0.000499582
0 0 0.000468648
0 0 0.000425699
0 0 0.000373946
0 0 0.000316929
0 0 0.000258880
0 0 0.000203602
0 0 0.000154582
0 0 0.000113184
0 0 0.000080639
0 0 0.000055306
0 0 0.000037685
0 0 0.000023948
0 0 0.000018541
0 0 0.000013629
0 0 0.000000000
0 0 0.000000000
0 0 -0.000000342
0 0 0.000000448
0 0 0.000000974
0 0 0.000000871
0 0 -0.000003535
0 0 -0.000012110
0 0 -0.000019644
0 0 -0.000016126
0 0 0.000006411
0 0 0.000049635
0 0 0.000108006
0 0 0.000172000
0 0 0.000231736
0 0 0.000279850
0 0 0.000312511
0 0 0.000329157
0 0 0.000331286
0 0 0.000321262
0 0 0.000301348
0 0 0.000273677
0 0 0.000240248
0 0 0.000203602
0 0 0.000166177
0 0 0.000130873
0 0 0.000099203
0 0 0.000073108
0 0 0.000051777
0 0 0.000036510
0 0 0.000024085
0 0 0.000019659
0 0 0.000015499
0 0 0.000000000
0 0 0.000000000
0 0 0.000000259
0 0 0.000000129
0 0 0.000000880
0 0 0.000001328
0 0 0.000000768
0 0 -0.000002852
0 0 -0.000008990
0 0 -0.000013837
0 0 -0.000011140
0 0 0.000003862
0 0 0.000031952
0 0 0.000069548
0 0 0.000110607
0 0 0.000148903
0 0 0.000179764
0 0 0.000200782
0 0 0.000211555
0 0 0.000213047
0 0 0.000206655
0 0 0.000193908
0 0 0.000176030
0 0 0.000154582
0 0 0.000130873
0 0 0.000107029
0 0 0.000084106
0 0 0.000064289
0 0 0.000047031
0 0 0.000034396
0 0 0.000023397
0 0 0.000020151
0 0 0.000016609
0 0 0.000000000
0 0 0.000000000
0 0 -0.000000189
0 0 -0.000000042
0 0 -0.000000010
0 0 0.000000540
0 0 0.000000901
0 0 0.000000268
0 0 -0.000002469
0 0 -0.000006700
0 0 -0.000009750
0 0 -0.000007707
0 0 0.000002281
0 0 0.000020561
0 0 0.000044806
0 0 0.000071189
0 0 0.000095762
0 0 0.000115585
0 0 0.000129095
0 0 0.000136071
0 0 0.000137034
0 0 0.000132960
0 0 0.000124663
0 0 0.000113184
0 0 0.000099203
0 0 0.000084106
0 0 0.000068517
0 0 0.000054257
0 0 0.000041084
0 0 0.000030987
0 0 0.000021880
0 0 0.000019443
0 0 0.000017104
0 0 0.000000000
0 0 0.000000000
0 0 0.000000104
0 0 -0.000000017
0 0 0.000000106
0 0 0.000000220
0 0 0.000000604
0 0 0.000000785
0 0 0.000000140
0 0 -0.000001917
0 0 -0.000004827
0 0 -0.000006760
0 0 -0.000005269
0 0 0.000001361
0 0 0.000013249
0 0 0.000028895
0 0 0.000045855
0 0 0.000061659
0 0 0.000074416
0 0 0.000083183
0 0 0.000087729
0 0 0.000088478
0 0 0.000085859
0 0 0.000080639
0 0 0.000073108
0 0 0.000064289
0 0 0.000054257
0 0 0.000044683
0 0 0.000034942
0 0 0.000027483
0 0 0.000019840
0 0 0.000018788
0 0 0.000016602
0 0 0.000000000
0 0 0.000000000
0 0 -0.000000077
0 0 -0.000000026
0 0 -0.000000104
0 0 -0.000000021
0 0 0.000000137
0 0 0.000000434
0 0 0.000000530
0 0 -0.000000020
0 0 -0.000001510
0 0 -0.000003477
0 0 -0.000004684
0 0 -0.000003587
0 0 0.000000841
0 0 0.000008628
0 0 0.000018771
0 0 0.000029724
0 0 0.000039876
0 0 0.000048078
0 0 0.000053659
0 0 0.000056583
0 0 0.000056966
0 0 0.000055306
0 0 0.000051777
0 0 0.000047031
0 0 0.000041084
0 0 0.000034942
0 0 0.000028373
0 0 0.000022825
0 0 0.000017359
0 0 0.000016440
0 0 0.000016277
0 0 0.000000000
0 0 0.000000000
0 0 0.000000050
0 0 0.000000005
0 0 0.000000030
0 0 -0.000000006
0 0 0.000000046
0 0 0.000000176
0 0 0.000000372
0 0 0.000000391
0 0 -0.000000070
0 0 -0.000001145
0 0 -0.000002479
0 0 -0.000003242
0 0 -0.000002463
0 0 0.000000494
0 0 0.000005613
0 0 0.000012268
0 0 0.000019439
0 0 0.000026141
0 0 0.000031552
0 0 0.000035332
0 0 0.000037278
0 0 0.000037685
0 0 0.000036510
0 0 0.000034396
0 0 0.000030987
0 0 0.000027483
0 0 0.000022825
0 0 0.000019357
0 0 0.000014585
0 0 0.000015506
0 0 0.000013921
0 0 0.000000000
0 0 0.000000000
0 0 -0.000000036
0 0 -0.000000008
0 0 -0.000000041
0 0 -0.000000034
0 0 -0.000000037
0 0 0.000000019
0 0 0.000000133
0 0 0.000000267
0 0 0.000000242
0 0 -0.000000126
0 0 -0.000000885
0 0 -0.000001753
0 0 -0.000002184
0 0 -0.000001565
0 0 0.000000453
0 0 0.000003838
0 0 0.000008134
0 0 0.000012734
0 0 0.000016954
0 0 0.000020386
0 0 0.000022698
0 0 0.000023948
0 0 0.000024085
0 0 0.000023397
0 0 0.000021880
0 0 0.000019840
0 0 0.000017359
0 0 0.000014585
0 0 0.000012103
0 0 0.000011776
0 0 0.000014063
0 0 0.000000000
0 0 0.000000000
0 0 0.000000046
0 0 0.000000021
0 0 0.000000040
0 0 0.000000017
0 0 0.000000006
0 0 0.000000004
0 0 0.000000049
0 0 0.000000146
0 0 0.000000242
0 0 0.000000201
0 0 -0.000000123
0 0 -0.000000748
0 0 -0.000001461
0 0 -0.000001836
0 0 -0.000001410
0 0 0.000000120
0 0 0.000002744
0 0 0.000006173
0 0 0.000009899
0 0 0.000013457
0 0 0.000016374
0 0 0.000018541
0 0 0.000019659
0 0 0.000020151
0 0 0.000019443
0 0 0.000018788
0 0 0.000016440
0 0 0.000015506
0 0 0.000011776
0 0 0.000014015
0 0 0.000009265
0 0 0.000000000
0 0 0.000000000
0 0 -0.000000012
0 0 0.000000029
0 0 0.000000017
0 0 0.000000034
0 0 0.000000016
0 0 0.000000011
0 0 0.000000010
0 0 0.000000054
0 0 0.000000131
0 0 0.000000199
0 0 0.000000143
0 0 -0.000000136
0 0 -0.000000642
0 0 -0.000001193
0 0 -0.000001469
0 0 -0.000001098
0 0 0.000000136
0 0 0.000002268
0 0 0.000005042
0 0 0.000008134
0 0 0.000011086
0 0 0.000013629
0 0 0.000015499
0 0 0.000016609
0 0 0.000017104
0 0 0.000016602
0 0 0.000016277
0 0 0.000013921
0 0 0.000014063
0 0 0.000009265
0 0 0.000016536
0 0 0.000000000
0 0 0.000000000
0 0 0.000000000
0 0 0.000000000
0 0 0.000000000
0 0 0.000000000
0 0 0.000000000
0 0 0.000000000
0 0 0.000000000
0 0 0.000000000
0 0 0.000000000
0 0 0.000000000
0 0 0.000000000
0 0 0.000000000
0 0 0.000000000
0 0 0.000000000
0 0 0.000000000
0 0 0.000000000
0 0 0.000000000
0 0 0.000000000
0 0 0.000000000
0 0 0.000000000
0 0 0.000000000
0 0 0.000000000
0 0 0.000000000
0 0 0.000000000
0 0 0.000000000
0 0 0.000000000
0 0 0.000000000
0 0 0.000000000
0 0 0.000000000
0 0 0.000000000
0 0 0.000000000
0 0 0.000000000
VECTORS u float
0 0 -0.000000000
0 0 0.000000000
0 0 -0.000000000
0 0 0.000000000
0 0 -0.000000000
0 0 0.000000000
0 0 -0.000000000
0 0 0.000000000
0 0 -0.000000000
0 0 0.000000000
0 0 -0.000000000
0 0 0.000000000
0 0 -0.000000000
0 0 0.000000000
0 0 -0.000000000
0 0 0.000000000
0 0 -0.000000000
0 0 0.000000000
0 0 -0.000000000
0 0 0.000000000
0 0 -0.000000000
0 0 0.000000000
0 0 -0.000000000
0 0 0.000000000
0 0 -0.000000000
0 0 0.000000000
0 0 -0.000000000
0 0 0.000000000
0 0 -0.000000000
0 0 0.000000000
0 0 -0.000000000
0 0 0.000000000
0 0 -0.000000000
0 0 0.000000000
0 0 9.661498862
0 0 3.279787544
0 0 3.746027576
0 0 2.507700705
0 0 2.331527159
0 0 1.799487598
0 0 1.375061335
0 0 1.077148159
0 0 0.719631090
0 0 0.522192662
0 0 0.288873581
0 0 0.172851249
0 0 0.057098318
0 0 0.017650422
0 0 -0.009724234
0 0 -0.002189640
0 0 -0.002067902
0 0 0.001211306
0 0 -0.000469286
0 0 0.000467301
0 0 -0.000249610
0 0 0.000170101
0 0 -0.000113243
0 0 0.000069997
0 0 -0.000047083
0 0 0.000030139
0 0 -0.000019665
0 0 0.000013149
0 0 -0.000009065
0 0 0.000007814
0 0 -0.000003463
0 0 0.000000000
0 0 -0.000000000
0 0 3.279787544
0 0 5.500249737
0 0 1.198695081
0 0 2.113910736
0 0 0.962967422
0 0 1.238789666
0 0 0.700338980
0 0 0.662981949
0 0 0.394344599
0 0 0.295006219
0 0 0.154568885
0 0 0.080573745
0 0 0.018224519
0 0 -0.009215089
0 0 -0.018138137
0 0 -0.011430562
0 0 -0.003614885
0 0 -0.000289313
0 0 0.000202861
0 0 0.000161825
0 0 0.000051370
0 0 0.000018520
0 0 -0.000005062
0 0 -0.000000033
0 0 -0.000003800
0 0 0.000000940
0 0 -0.000001159
0 0 0.000000876
0 0 -0.000000560
0 0 0.000000632
0 0 0.000000582
0 0 -0.000000000
0 0 0.000000000
0 0 3.746027576
0 0 1.198695081
0 0 -0.586266675
0 0 -0.518174671
0 0 -0.602249205
0 0 -0.441878483
0 0 -0.466538922
0 0 -0.344696948
0 0 -0.344902553
0 0 -0.255428161
0 0 -0.237023349
0 0 -0.168233975
0 0 -0.138110820
0 0 -0.084456370
0 0 -0.053934137
0 0 -0.020079897
0 0 -0.007906033
0 0 -0.000365263
0 0 -0.000546225
0 0 0.000552649
0 0 -0.000142311
0 0 0.000198470
0 0 -0.000097540
0 0 0.000066141
0 0 -0.000046596
0 0 0.000027503
0 0 -0.000019102
0 0 0.000012305
0 0 -0.000008414
0 0 0.000006874
0 0 -0.000002882
0 0 0.000000000
0 0 -0.000000000
0 0 2.507700705
0 0 2.113910736
0 0 -0.518174671
0 0 -0.151318409
0 0 -0.686271826
0 0 -0.381345905
0 0 -0.517516298
0 0 -0.345204865
0 0 -0.363145292
0 0 -0.270650600