# vtk DataFile Version 2.0
Square plate test
ASCII
DATASET UNSTRUCTURED_GRID
POINTS 1305 float
7.73302 19.8526 -0.156737
7.73748 19.8005 -0.140538
8.30928 19.8318 -0.153198
8.30609 19.8833 -0.171439
7.74195 19.7484 -0.124339
8.31248 19.7803 -0.134957
7.74642 19.6962 -0.108141
8.31567 19.7287 -0.116716
7.75089 19.6441 -0.091942
8.31886 19.6772 -0.098474
7.75535 19.592 -0.075743
8.32206 19.6257 -0.080233
7.75982 19.5399 -0.059545
8.32525 19.5741 -0.061992
7.76428 19.4878 -0.043346
8.32845 19.5226 -0.043751
7.76875 19.4357 -0.027148
8.33164 19.4711 -0.02551
7.77322 19.3835 -0.010949
8.33483 19.4195 -0.007269
7.77768 19.3314 0.00525
8.33803 19.368 0.010973
7.78215 19.2793 0.021448
8.34122 19.3165 0.029214
7.78662 19.2272 0.037647
8.34441 19.2649 0.047455
7.79108 19.1751 0.053846
8.34761 19.2134 0.065696
7.79555 19.123 0.070044
8.3508 19.1619 0.083937
8.88152 19.8463 -0.173147
8.87955 19.8972 -0.193414
8.88348 19.7955 -0.15288
8.88545 19.7447 -0.132613
8.88742 19.6938 -0.112346
8.88938 19.643 -0.092079
8.89135 19.5922 -0.071812
8.89332 19.5413 -0.051545
8.89528 19.4905 -0.031278
8.89725 19.4397 -0.011011
8.89921 19.3888 0.009256
8.90118 19.338 0.029523
8.90315 19.2872 0.04979
8.90511 19.2363 0.070057
8.90708 19.1855 0.090324
9.46302 19.8449 -0.198725
9.46379 19.8949 -0.220998
9.46225 19.7949 -0.176452
9.46147 19.7448 -0.154179
9.4607 19.6948 -0.131906
9.45993 19.6448 -0.109633
9.45916 19.5948 -0.08736
9.45838 19.5448 -0.065087
9.45761 19.4948 -0.042814
9.45684 19.4447 -0.020542
9.45607 19.3947 0.001731
9.45529 19.3447 0.024005
9.45452 19.2947 0.046277
9.45375 19.2447 0.06855
9.45298 19.1946 0.090823
9.80435 19.8588 -0.208221
9.79821 19.9131 -0.229843
9.8105 19.8045 -0.186599
9.81665 19.7502 -0.164976
9.82279 19.6958 -0.143354
9.82894 19.6415 -0.121732
9.83509 19.5872 -0.10011
9.84124 19.5329 -0.078488
9.83535 19.4808 -0.052941
9.82946 19.4286 -0.027394
9.82358 19.3765 -0.001847
9.81769 19.3244 0.023701
9.8118 19.2722 0.049248
9.80592 19.2201 0.074795
9.80003 19.168 0.100342
10.1457 19.8727 -0.217716
10.1326 19.9313 -0.238687
10.1588 19.8141 -0.196745
10.1718 19.7555 -0.175774
10.1849 19.6969 -0.154802
10.198 19.6382 -0.133831
10.211 19.5796 -0.11286
10.2241 19.521 -0.091889
10.2131 19.4668 -0.063067
10.2021 19.4125 -0.034246
10.1911 19.3583 -0.005425
10.1801 19.304 0.023397
10.1691 19.2498 0.052218
10.1581 19.1955 0.081039
10.1471 19.1413 0.109861
10.487 19.8866 -0.227211
10.3954 19.9885 -0.265927
10.507 19.8237 -0.206891
10.527 19.7608 -0.186571
10.547 19.6979 -0.16625
10.567 19.635 -0.14593
10.587 19.5721 -0.12561
10.5908 19.4528 -0.073194
10.5747 19.3964 -0.041098
10.5586 19.3401 -0.009003
10.5425 19.2837 0.023093
10.5264 19.2273 0.055188
10.5103 19.171 0.087284
10.4792 19.0635 0.139629
11.4113 19.5339 -0.100389
11.1975 19.5446 -0.106513
11.3894 19.4625 -0.071833
11.4634 19.4811 -0.078941
11.099 19.5387 -0.106309
11.3154 19.444 -0.064725
11.0006 19.5328 -0.106105
11.2413 19.4254 -0.057617
10.9022 19.5269 -0.105901
11.1673 19.4068 -0.050509
10.8038 19.521 -0.105697
11.0933 19.3882 -0.043401
10.7054 19.5151 -0.105493
11.0193 19.3697 -0.036293
10.9453 19.3511 -0.029185
10.9261 19.2989 -0.000816
10.907 19.2467 0.027553
10.8879 19.1945 0.055921
10.8687 19.1423 0.084291
10.8496 19.0901 0.11266
10.8304 19.0379 0.141029
10.8113 18.9857 0.169397
11.5813 19.3804 -0.037153
11.6309 19.4117 -0.051164
11.5317 19.3492 -0.023141
11.4821 19.318 -0.009129
11.4325 19.2868 0.004883
11.3828 19.2555 0.018895
11.3332 19.2243 0.032907
11.2836 19.1931 0.046919
11.2615 19.145 0.071561
11.2393 19.097 0.096204
11.2171 19.0489 0.120846
11.1949 19.0009 0.145488
11.1728 18.9529 0.170131
11.1506 18.9048 0.194773
11.1284 18.8568 0.219416
11.7732 19.2983 -0.002473
11.7984 19.3422 -0.023388
11.748 19.2545 0.018443
11.7228 19.2106 0.039359
11.6976 19.1667 0.060275
11.6724 19.1228 0.081191
11.6472 19.0789 0.102107
11.622 19.035 0.123023
11.5968 18.9911 0.143939
11.5716 18.9473 0.164854
11.5464 18.9034 0.18577
11.5212 18.8595 0.206686
11.496 18.8156 0.227602
11.4708 18.7717 0.248518
11.4456 18.7278 0.269434
12.346 19.2214 0.116595
12.3585 19.2687 0.092059
12.3336 19.174 0.14113
12.3211 19.1267 0.165665
12.3087 19.0794 0.1902
12.2963 19.032 0.214735
12.2838 18.9847 0.23927
12.2714 18.9373 0.263805
12.2589 18.89 0.28834
12.2465 18.8426 0.312875
12.234 18.7953 0.33741
12.2216 18.7479 0.361946
12.2092 18.7006 0.386481
12.1967 18.6532 0.411016
12.1843 18.6059 0.435551
12.9573 19.2352 0.243583
12.9621 19.2829 0.217134
12.9526 19.1874 0.270032
12.9479 19.1397 0.29648
12.9431 19.092 0.322929
12.9384 19.0443 0.349378
12.9337 18.9966 0.375827
12.929 18.9489 0.402275
12.9242 18.9012 0.428724
12.9195 18.8535 0.455173
12.9148 18.8057 0.481621
12.91 18.758 0.50807
12.9053 18.7103 0.534519
12.9006 18.6626 0.560967
12.8958 18.6149 0.587416
13.579 19.3184 0.369493
13.5784 19.3656 0.341825
13.5795 19.2711 0.39716
13.5801 19.2239 0.424828
13.5807 19.1766 0.452496
13.5813 19.1294 0.480164
13.5818 19.0821 0.507831
13.5824 19.0349 0.535499
13.583 18.9876 0.563167
13.5836 18.9404 0.590835
13.5841 18.8931 0.618502
13.5847 18.8458 0.64617
13.5853 18.7986 0.673838
13.5859 18.7513 0.701506
13.5865 18.7041 0.729173
14.2094 19.4414 0.492313
14.2059 19.4881 0.464018
14.213 19.3946 0.520608
14.2166 19.3479 0.548904
14.2201 19.3012 0.577199
14.2237 19.2544 0.605495
14.2272 19.2077 0.63379
14.2308 19.1609 0.662085
14.2344 19.1142 0.690381
14.2379 19.0674 0.718676
14.2415 19.0207 0.746971
14.2451 18.9739 0.775267
14.2486 18.9272 0.803562
14.2522 18.8804 0.831857
14.2558 18.8337 0.860153
14.8323 19.602 0.600977
14.8255 19.648 0.57207
14.8391 19.556 0.629885
14.8459 19.51 0.658792
14.8526 19.464 0.6877
14.8594 19.418 0.716607
14.8662 19.372 0.745515
14.8729 19.326 0.774422
14.8797 19.2799 0.80333
14.8865 19.2339 0.832237
14.8932 19.1879 0.861145
14.9 19.1419 0.890052
14.9068 19.0959 0.91896
14.9135 19.0499 0.947867
14.9203 19.0039 0.976775
15.4342 19.8126 0.68391
15.4228 19.8572 0.654248
15.4456 19.768 0.713572
15.457 19.7234 0.743235
15.4684 19.6788 0.772897
15.4797 19.6342 0.80256
15.4911 19.5896 0.832222
15.5025 19.545 0.861885
15.5139 19.5004 0.891547
15.5253 19.4558 0.921209
15.5367 19.4112 0.950872
15.5481 19.3666 0.980534
15.5595 19.322 1.0102
15.5709 19.2774 1.03986
15.5823 19.2328 1.06952
16.0164 20.075 0.739183
16.0002 20.1177 0.708925
16.0326 20.0324 0.76944
16.0488 19.9897 0.799698
16.0651 19.9471 0.829956
16.0813 19.9044 0.860213
16.0975 19.8617 0.890471
16.1137 19.8191 0.920728
16.1299 19.7764 0.950986
16.1462 19.7338 0.981244
16.1624 19.6911 1.0115
16.1786 19.6484 1.04176
16.1948 19.6058 1.07202
16.211 19.5631 1.10227
16.2272 19.5204 1.13253
16.5821 20.3845 0.775711
16.562 20.4252 0.745098
16.6023 20.3438 0.806324
16.6225 20.3032 0.836937
16.6426 20.2625 0.867551
16.6628 20.2218 0.898164
16.683 20.1811 0.928777
16.7032 20.1404 0.959389
16.7233 20.0998 0.990002
16.7435 20.0591 1.02061
16.7637 20.0184 1.05123
16.7838 19.9777 1.08184
16.804 19.9371 1.11246
16.8242 19.8964 1.14307
16.8443 19.8557 1.17368
17.1234 20.7393 0.801598
17.0997 20.7778 0.770729
17.1471 20.7008 0.832467
17.1707 20.6622 0.863336
17.1944 20.6237 0.894205
17.2181 20.5852 0.925074
17.2418 20.5466 0.955943
17.2655 20.5081 0.986811
17.2892 20.4696 1.01768
17.3129 20.431 1.04855
17.3365 20.3925 1.07942
17.3602 20.354 1.11029
17.3839 20.3155 1.14116
17.4076 20.2769 1.17202
17.4313 20.2384 1.20289
17.6234 21.1444 0.822787
17.5959 21.1801 0.791641
17.6509 21.1087 0.853933
17.6783 21.073 0.885079
17.7058 21.0373 0.916224
17.7333 21.0016 0.94737
17.7607 20.9659 0.978516
17.7882 20.9302 1.00966
17.8156 20.8945 1.04081
17.8431 20.8588 1.07195
17.8706 20.8231 1.1031
17.898 20.7874 1.13425
17.9255 20.7517 1.16539
17.953 20.716 1.19654
17.9804 20.6803 1.22768
18.0613 21.6089 0.853841
18.0299 21.6408 0.822263
18.0927 21.577 0.885419
18.1241 21.5451 0.916997
18.1555 21.5132 0.948575
18.1868 21.4814 0.980153
18.2182 21.4495 1.01173
18.2496 21.4176 1.04331
18.281 21.3857 1.07489
18.3123 21.3538 1.10646
18.3437 21.3219 1.13804
18.3751 21.2901 1.16962
18.4065 21.2582 1.2012
18.4379 21.2263 1.23278
18.4692 21.1944 1.26435
18.4328 22.1333 0.926747
18.3989 22.1619 0.894599
18.4666 22.1048 0.958896
18.5005 22.0762 0.991044
18.5344 22.0476 1.02319
18.5683 22.019 1.05534
18.6022 21.9905 1.08749
18.6361 21.9619 1.11964
18.67 21.9333 1.15179
18.7039 21.9048 1.18394
18.7378 21.8762 1.21608
18.7716 21.8476 1.24823
18.8055 21.819 1.28038
18.8394 21.7905 1.31253
18.8733 21.7619 1.34468
18.743 22.7001 1.06207
18.7081 22.727 1.02949
18.7778 22.6732 1.09465
18.8127 22.6463 1.12723
18.8475 22.6195 1.15981
18.8824 22.5926 1.19239
18.9172 22.5657 1.22497
18.9521 22.5388 1.25755
18.9869 22.5119 1.29013
19.0218 22.4851 1.32271
19.0567 22.4582 1.35529
19.0915 22.4313 1.38787
19.1264 22.4044 1.42045
19.1612 22.3776 1.45303
19.1961 22.3507 1.48561
18.9994 23.2856 1.26031
18.9643 23.312 1.22758
19.0344 23.2592 1.29305
19.0695 23.2327 1.32578
19.1045 23.2063 1.35851
19.1396 23.1799 1.39124
19.1746 23.1534 1.42398
19.2097 23.127 1.45671
19.2447 23.1006 1.48944
19.2798 23.0741 1.52217
19.3148 23.0477 1.55491
19.3499 23.0213 1.58764
19.3849 22.9948 1.62037
19.42 22.9684 1.6531
19.455 22.942 1.68584
19.2342 23.8748 1.47984
19.199 23.901 1.44702
19.2693 23.8486 1.51265
19.3044 23.8223 1.54546
19.3396 23.7961 1.57827
19.3747 23.7699 1.61108
19.4098 23.7437 1.64389
19.445 23.7175 1.6767
19.4801 23.6912 1.70951
19.5152 23.665 1.74232
19.5504 23.6388 1.77513
19.5855 23.6126 1.80794
19.6206 23.5863 1.84075
19.6558 23.5601 1.87356
19.6909 23.5339 1.90637
19.4891 24.4646 1.66666
19.4538 24.4903 1.63369
19.5245 24.4389 1.69963
19.5598 24.4131 1.7326
19.5952 24.3874 1.76557
19.6305 24.3617 1.79854
19.6659 24.3359 1.83151
19.7012 24.3102 1.86448
19.7366 24.2845 1.89745
19.7719 24.2588 1.93042
19.8073 24.233 1.96339
19.8426 24.2073 1.99636
19.878 24.1816 2.02933
19.9133 24.1559 2.0623
19.9487 24.1301 2.09527
19.7593 25.0558 1.83144
19.7238 25.0812 1.79839
19.7948 25.0304 1.86449
19.8303 25.0049 1.89755
19.8658 24.9795 1.9306
19.9013 24.9541 1.96365
[...]
POINT_DATA 1305
SCALARS fixed float
LOOKUP_TABLE default
0
1
-1
0
1
-1
1
-1
1
-1
1
-1
1
-1
1
-1
1
-1
1
-1
1
-1
1
-1
1
-1
1
-1
0
0
-1
0
-1
-1
-1
-1
-1
-1
-1
-1
-1
-1
-1
-1
0
-1
0
-1
-1
-1
-1
-1
-1
-1
-1
-1
-1
-1
-1
0
-1
0
-1
-1
-1
-1
-1
-1
-1
-1
-1
-1
-1
-1
0
-1
0
-1
-1
-1
-1
-1
-1
-1
-1
-1
-1
-1
-1
0
-1
0
-1
-1
-1
-1
-1
-1
-1
-1
-1
-1
-1
0
0
-1
-1
0
-1
-1
-1
-1
-1
-1
-1
-1
-1
-1
-1
-1
-1
-1
-1
-1
-1
0
-1
0
-1
-1
-1
-1
-1
-1
-1
-1
-1
-1
-1
-1
0
-1
0
-1
-1
-1
-1
-1
-1
-1
-1
-1
-1
-1
-1
0
-1
0
-1
-1
-1
-1
-1
-1
-1
-1
-1
-1
-1
-1
0
-1
0
-1
-1
-1
-1
-1
-1
-1
-1
-1
-1
-1
-1
0
-1
0
-1
-1
-1
-1
-1
-1
-1
-1
-1
-1
-1
-1
0
-1
0
-1
-1
-1
-1
-1
-1
-1
-1
-1
-1
-1
-1
0
-1
0
-1
-1
-1
-1
-1
-1
-1
-1
-1
-1
-1
-1
0
-1
0
-1
-1
-1
-1
-1
-1
-1
-1
-1
-1
-1
-1
0
-1
0
-1
-1
-1
-1
-1
-1
-1
-1
-1
-1
-1
-1
0
-1
0
-1
-1
-1
-1
-1
-1
-1
-1
-1
-1
-1
-1
0
-1
0
-1
-1
-1
-1
-1
-1
-1
-1
-1
-1
-1
-1
0
-1
0
-1
-1
-1
-1
-1
-1
-1
-1
-1
-1
-1
-1
0
-1
0
-1
-1
-1
-1
-1
-1
-1
-1
-1
-1
-1
-1
0
-1
0
-1
-1
-1
-1
-1
-1
-1
-1
-1
-1
-1
-1
0
-1
0
-1
-1
-1
-1
-1
-1
-1
-1
-1
-1
-1
-1
0
-1
0
-1
-1
-1
-1
-1
-1
-1
-1
-1
-1
-1
-1
0
-1
0
-1
-1
-1
-1
-1
-1
-1
-1
-1
-1
-1
-1
0
-1
0
-1
-1
-1
-1
-1
-1
-1
-1
-1
-1
-1
-1
0
-1
0
-1
-1
-1
-1
-1
-1
-1
-1
-1
-1
-1
-1
0
-1
0
-1
-1
-1
-1
-1
-1
-1
-1
-1
-1
-1
-1
0
-1
0
-1
-1
-1
-1
-1
-1
-1
-1
-1
-1
-1
-1
0
-1
0
-1
-1
-1
-1
-1
-1
-1
-1
-1
-1
-1
-1
0
-1
0
-1
-1
-1
-1
-1
-1
-1
-1
-1
-1
-1
-1
0
30
0
30
30
30
30
30
30
30
30
30
30
30
30
0
-1
0
-1
-1
-1
-1
-1
-1
-1
-1
-1
-1
-1
-1
0
-1
0
-1
-1
-1
-1
-1
-1
-1
-1
-1
-1
-1
-1
0
-1
0
-1
-1
-1
-1
-1
-1
-1
-1
-1
-1
-1
-1
0
-1
0
-1
-1
-1
-1
-1
-1
-1
-1
-1
-1
-1
-1
0
-1
0
-1
-1
-1
-1
-1
-1
-1
-1
-1
-1
-1
-1
0
-1
0
-1
-1
-1
-1
-1
-1
-1
-1
-1
-1
-1
-1
0
-1
0
-1
-1
-1
-1
-1
-1
-1
-1
-1
-1
-1
0
0
-1
-1
0
-1
-1
-1
-1
-1
-1
-1
-1
-1
-1
-1
-1
-1
-1
-1
-1
-1
0
-1
0
-1
-1
-1
-1
-1
-1
-1
-1
-1
-1
-1
-1
0
-1
0
-1
-1
-1
-1
-1
-1
-1
-1
-1
-1
-1
-1
0
-1
0
-1
-1
-1
-1
-1
-1
-1
-1
-1
-1
-1
-1
0
-1
0
-1
-1
-1
-1
-1
-1
-1
-1
-1
-1
-1
-1
0
-1
0
-1
-1
-1
-1
-1
-1
-1
-1
-1
-1
-1
-1
0
-1
0
-1
-1
-1
-1
-1
-1
-1
-1
-1
-1
-1
-1
0
-1
0
-1
-1
-1
-1
-1
-1
-1
-1
-1
-1
-1
-1
0
31
0
31
31
31
31
31
31
31
31
31
31
31
31
0
-1
0
-1
-1
-1
-1
-1
-1
-1
-1
-1
-1
-1
-1
0
-1
0
-1
-1
-1
-1
-1
-1
-1
-1
-1
-1
-1
-1
0
-1
0
-1
-1
-1
-1
-1
-1
-1
-1
-1
-1
-1
-1
0
-1
0
-1
-1
-1
-1
-1
-1
-1
-1
-1
-1
-1
-1
0
-1
0
-1
-1
-1
-1
-1
-1
-1
-1
-1
-1
-1
0
0
-1
-1
0
-1
-1
-1
-1
-1
-1
-1
-1
-1
-1
-1
-1
-1
-1
-1
-1
-1
0
-1
0
-1
-1
-1
-1
-1
-1
-1
-1
-1
-1
-1
-1
0
-1
0
-1
-1
-1
-1
-1
-1
-1
-1
-1
-1
-1
-1
0
-1
0
-1
-1
-1
-1
-1
-1
-1
-1
-1
-1
-1
-1
0
-1
0
-1
-1
-1
-1
-1
-1
-1
-1
-1
-1
-1
-1
0
-1
0
-1
-1
-1
-1
-1
-1
-1
-1
-1
-1
-1
-1
0
-1
0
-1
-1
-1
-1
-1
-1
-1
-1
-1
-1
-1
-1
0
32
0
32
32
32
32
32
32
32
32
32
32
32
32
0
-1
0
-1
-1
-1
-1
-1
-1
-1
-1
-1
-1
-1
-1
0
-1
0
-1
-1
-1
-1
-1
-1
-1
-1
-1
-1
-1
-1
0
-1
0
-1
-1
-1
-1
-1
-1
-1
-1
-1
-1
-1
-1
0
-1
0
-1
-1
-1
-1
-1
-1
-1
-1
-1
-1
-1
-1
0
-1
0
-1
-1
-1
-1
-1
-1
-1
-1
-1
-1
-1
0
0
-1
-1
0
-1
-1
-1
-1
-1
-1
-1
-1
-1
-1
-1
-1
-1
-1
-1
-1
-1
0
-1
0
-1
-1
-1
-1
-1
-1
-1
-1
-1
-1
-1
-1
0
-1
0
-1
-1
-1
-1
-1
-1
-1
-1
-1
-1
-1
-1
0
-1
0
-1
-1
-1
-1
-1
-1
-1
-1
-1
-1
-1
-1
0
-1
0
-1
-1
-1
-1
-1
-1
-1
-1
-1
-1
-1
-1
0
33
0
33
33
33
33
33
33
33
33
33
33
33
33
0
-1
0
-1
-1
-1
-1
-1
-1
-1
-1
-1
-1
-1
-1
0
-1
0
-1
-1
-1
-1
-1
-1
-1
-1
-1
-1
-1
-1
0
-1
0
-1
-1
-1
-1
-1
-1
-1
-1
-1
-1
-1
-1
0
-1
0
-1
-1
-1
-1
-1
-1
-1
-1
-1
-1
-1
-1
0
-1
0
-1
-1
-1
-1
-1
-1
-1
-1
-1
-1
-1
-1
0
-1
0
-1
-1
-1
-1
-1
-1
-1
-1
-1
-1
-1
-1
0
34
0
34
34
34
34
34
34
34
34
34
34
34
34
0
-1
-1
-1
-1
-1
-1
-1
-1
-1
-1
-1
-1
-1
-1
-1
-1
-1
-1
-1
-1
-1
-1
-1
-1
-1
-1
-1
-1
-1
-1
-1
-1
-1
-1
-1
-1
-1
-1
-1
-1
-1
-1
-1
-1
-1
-1
-1
-1
-1
-1
-1
-1
-1
-1
-1
-1
-1
-1
-1
-1
-1
-1
-1
-1
-1
-1
-1
-1
-1
-1
-1
-1
-1
-1
-1
-1
-1
-1
-1
-1
-1
-1
-1
-1
-1
-1
-1
-1
-1
-1
-1
-1
-1
-1
-1
-1
