# vtk DataFile Version 4.2
vtk output
ASCII
DATASET UNSTRUCTURED_GRID
POINTS 1198 float
8.30609 19.8833 -0.171439 8.30928 19.8318 -0.153198 8.88152 19.8463 -0.173147 
8.87955 19.8972 -0.193414 8.31248 19.7803 -0.134957 8.88348 19.7955 -0.15288 
8.31567 19.7287 -0.116716 8.88545 19.7447 -0.132613 8.31886 19.6772 -0.098474 
8.88742 19.6938 -0.112346 8.32206 19.6257 -0.080233 8.88938 19.643 -0.092079 
8.32525 19.5741 -0.061992 8.89135 19.5922 -0.071812 8.32845 19.5226 -0.043751 
8.89332 19.5413 -0.051545 8.33164 19.4711 -0.02551 8.89528 19.4905 -0.031278 
8.33483 19.4195 -0.007269 8.89725 19.4397 -0.011011 8.33803 19.368 0.010973 
8.89921 19.3888 0.009256 8.34122 19.3165 0.029214 8.90118 19.338 0.029523 
8.34441 19.2649 0.047455 8.90315 19.2872 0.04979 8.34761 19.2134 0.065696 
8.90511 19.2363 0.070057 8.3508 19.1619 0.083937 8.90708 19.1855 0.090324 
9.46302 19.8449 -0.198725 9.46379 19.8949 -0.220998 9.46225 19.7949 -0.176452 
9.46147 19.7448 -0.154179 9.4607 19.6948 -0.131906 9.45993 19.6448 -0.109633 
9.45916 19.5948 -0.08736 9.45838 19.5448 -0.065087 9.45761 19.4948 -0.042814 
9.45684 19.4447 -0.020542 9.45607 19.3947 0.001731 9.45529 19.3447 0.024005 
9.45452 19.2947 0.046277 9.45375 19.2447 0.06855 9.45298 19.1946 0.090823 
9.80435 19.8588 -0.208221 9.79821 19.9131 -0.229843 9.8105 19.8045 -0.186599 
9.81665 19.7502 -0.164976 9.82279 19.6958 -0.143354 9.82894 19.6415 -0.121732 
9.83509 19.5872 -0.10011 9.84124 19.5329 -0.078488 9.83535 19.4808 -0.052941 
9.82946 19.4286 -0.027394 9.82358 19.3765 -0.001847 9.81769 19.3244 0.023701 
9.8118 19.2722 0.049248 9.80592 19.2201 0.074795 9.80003 19.168 0.100342 
10.1457 19.8727 -0.217716 10.1326 19.9313 -0.238687 10.1588 19.8141 -0.196745 
10.1718 19.7555 -0.175774 10.1849 19.6969 -0.154802 10.198 19.6382 -0.133831 
10.211 19.5796 -0.11286 10.2241 19.521 -0.091889 10.2131 19.4668 -0.063067 
10.2021 19.4125 -0.034246 10.1911 19.3583 -0.005425 10.1801 19.304 0.023397 
10.1691 19.2498 0.052218 10.1581 19.1955 0.081039 10.1471 19.1413 0.109861 
10.487 19.8866 -0.227211 10.3954 19.9885 -0.265927 10.507 19.8237 -0.206891 
10.527 19.7608 -0.186571 10.547 19.6979 -0.16625 10.567 19.635 -0.14593 
10.587 19.5721 -0.12561 10.6069 19.5091 -0.105289 10.5908 19.4528 -0.073194 
10.5747 19.3964 -0.041098 10.5586 19.3401 -0.009003 10.5425 19.2837 0.023093 
10.5264 19.2273 0.055188 10.5103 19.171 0.087284 10.4792 19.0635 0.139629 
11.4113 19.5339 -0.100389 11.1975 19.5446 -0.106513 11.3894 19.4625 -0.071833 
11.4634 19.4811 -0.078941 11.099 19.5387 -0.106309 11.3154 19.444 -0.064725 
11.0006 19.5328 -0.106105 11.2413 19.4254 -0.057617 10.9022 19.5269 -0.105901 
11.1673 19.4068 -0.050509 10.8038 19.521 -0.105697 11.0933 19.3882 -0.043401 
10.7054 19.5151 -0.105493 11.0193 19.3697 -0.036293 10.9453 19.3511 -0.029185 
10.9261 19.2989 -0.000816 10.907 19.2467 0.027553 10.8879 19.1945 0.055921 
10.8687 19.1423 0.084291 10.8496 19.0901 0.11266 10.8304 19.0379 0.141029 
10.8113 18.9857 0.169397 11.5813 19.3804 -0.037153 11.6309 19.4117 -0.051164 
11.5317 19.3492 -0.023141 11.4821 19.318 -0.009129 11.4325 19.2868 0.004883 
11.3828 19.2555 0.018895 11.3332 19.2243 0.032907 11.2836 19.1931 0.046919 
11.2615 19.145 0.071561 11.2393 19.097 0.096204 11.2171 19.0489 0.120846 
11.1949 19.0009 0.145488 11.1728 18.9529 0.170131 11.1506 18.9048 0.194773 
11.1284 18.8568 0.219416 11.7732 19.2983 -0.002473 11.7984 19.3422 -0.023388 
11.748 19.2545 0.018443 11.7228 19.2106 0.039359 11.6976 19.1667 0.060275 
11.6724 19.1228 0.081191 11.6472 19.0789 0.102107 11.622 19.035 0.123023 
11.5968 18.9911 0.143939 11.5716 18.9473 0.164854 11.5464 18.9034 0.18577 
11.5212 18.8595 0.206686 11.496 18.8156 0.227602 11.4708 18.7717 0.248518 
11.4456 18.7278 0.269434 12.346 19.2214 0.116595 12.3585 19.2687 0.092059 
12.3336 19.174 0.14113 12.3211 19.1267 0.165665 12.3087 19.0794 0.1902 
12.2963 19.032 0.214735 12.2838 18.9847 0.23927 12.2714 18.9373 0.263805 
12.2589 18.89 0.28834 12.2465 18.8426 0.312875 12.234 18.7953 0.33741 
12.2216 18.7479 0.361946 12.2092 18.7006 0.386481 12.1967 18.6532 0.411016 
12.1843 18.6059 0.435551 12.9573 19.2352 0.243583 12.9621 19.2829 0.217134 
12.9526 19.1874 0.270032 12.9479 19.1397 0.29648 12.9431 19.092 0.322929 
12.9384 19.0443 0.349378 12.9337 18.9966 0.375827 12.929 18.9489 0.402275 
12.9242 18.9012 0.428724 12.9195 18.8535 0.455173 12.9148 18.8057 0.481621 
12.91 18.758 0.50807 12.9053 18.7103 0.534519 12.9006 18.6626 0.560967 
12.8958 18.6149 0.587416 13.579 19.3184 0.369493 13.5784 19.3656 0.341825 
13.5795 19.2711 0.39716 13.5801 19.2239 0.424828 13.5807 19.1766 0.452496 
13.5813 19.1294 0.480164 13.5818 19.0821 0.507831 13.5824 19.0349 0.535499 
13.583 18.9876 0.563167 13.5836 18.9404 0.590835 13.5841 18.8931 0.618502 
13.5847 18.8458 0.64617 13.5853 18.7986 0.673838 13.5859 18.7513 0.701506 
13.5865 18.7041 0.729173 14.2094 19.4414 0.492313 14.2059 19.4881 0.464018 
14.213 19.3946 0.520608 14.2166 19.3479 0.548904 14.2201 19.3012 0.577199 
14.2237 19.2544 0.605495 14.2272 19.2077 0.63379 14.2308 19.1609 0.662085 
14.2344 19.1142 0.690381 14.2379 19.0674 0.718676 14.2415 19.0207 0.746971 
14.2451 18.9739 0.775267 14.2486 18.9272 0.803562 14.2522 18.8804 0.831857 
14.2558 18.8337 0.860153 14.8323 19.602 0.600977 14.8255 19.648 0.57207 
14.8391 19.556 0.629885 14.8459 19.51 0.658792 14.8526 19.464 0.6877 
14.8594 19.418 0.716607 14.8662 19.372 0.745515 14.8729 19.326 0.774422 
14.8797 19.2799 0.80333 14.8865 19.2339 0.832237 14.8932 19.1879 0.861145 
14.9 19.1419 0.890052 14.9068 19.0959 0.91896 14.9135 19.0499 0.947867 
14.9203 19.0039 0.976775 15.4342 19.8126 0.68391 15.4228 19.8572 0.654248 
15.4456 19.768 0.713572 15.457 19.7234 0.743235 15.4684 19.6788 0.772897 
15.4797 19.6342 0.80256 15.4911 19.5896 0.832222 15.5025 19.545 0.861885 
15.5139 19.5004 0.891547 15.5253 19.4558 0.921209 15.5367 19.4112 0.950872 
15.5481 19.3666 0.980534 15.5595 19.322 1.0102 15.5709 19.2774 1.03986 
15.5823 19.2328 1.06952 16.0164 20.075 0.739183 16.0002 20.1177 0.708925 
16.0326 20.0324 0.76944 16.0488 19.9897 0.799698 16.0651 19.9471 0.829956 
16.0813 19.9044 0.860213 16.0975 19.8617 0.890471 16.1137 19.8191 0.920728 
16.1299 19.7764 0.950986 16.1462 19.7338 0.981244 16.1624 19.6911 1.0115 
16.1786 19.6484 1.04176 16.1948 19.6058 1.07202 16.211 19.5631 1.10227 
16.2272 19.5204 1.13253 16.5821 20.3845 0.775711 16.562 20.4252 0.745098 
16.6023 20.3438 0.806324 16.6225 20.3032 0.836937 16.6426 20.2625 0.867551 
16.6628 20.2218 0.898164 16.683 20.1811 0.928777 16.7032 20.1404 0.959389 
16.7233 20.0998 0.990002 16.7435 20.0591 1.02061 16.7637 20.0184 1.05123 
16.7838 19.9777 1.08184 16.804 19.9371 1.11246 16.8242 19.8964 1.14307 
16.8443 19.8557 1.17368 17.1234 20.7393 0.801598 17.0997 20.7778 0.770729 
17.1471 20.7008 0.832467 17.1707 20.6622 0.863336 17.1944 20.6237 0.894205 
17.2181 20.5852 0.925074 17.2418 20.5466 0.955943 17.2655 20.5081 0.986811 
17.2892 20.4696 1.01768 17.3129 20.431 1.04855 17.3365 20.3925 1.07942 
17.3602 20.354 1.11029 17.3839 20.3155 1.14116 17.4076 20.2769 1.17202 
17.4313 20.2384 1.20289 17.6234 21.1444 0.822787 17.5959 21.1801 0.791641 
17.6509 21.1087 0.853933 17.6783 21.073 0.885079 17.7058 21.0373 0.916224 
17.7333 21.0016 0.94737 17.7607 20.9659 0.978516 17.7882 20.9302 1.00966 
17.8156 20.8945 1.04081 17.8431 20.8588 1.07195 17.8706 20.8231 1.1031 
17.898 20.7874 1.13425 17.9255 20.7517 1.16539 17.953 20.716 1.19654 
17.9804 20.6803 1.22768 18.0613 21.6089 0.853841 18.0299 21.6408 0.822263 
18.0927 21.577 0.885419 18.1241 21.5451 0.916997 18.1555 21.5132 0.948575 
18.1868 21.4814 0.980153 18.2182 21.4495 1.01173 18.2496 21.4176 1.04331 
18.281 21.3857 1.07489 18.3123 21.3538 1.10646 18.3437 21.3219 1.13804 
18.3751 21.2901 1.16962 18.4065 21.2582 1.2012 18.4379 21.2263 1.23278 
18.4692 21.1944 1.26435 18.4328 22.1333 0.926747 18.3989 22.1619 0.894599 
18.4666 22.1048 0.958896 18.5005 22.0762 0.991044 18.5344 22.0476 1.02319 
18.5683 22.019 1.05534 18.6022 21.9905 1.08749 18.6361 21.9619 1.11964 
18.67 21.9333 1.15179 18.7039 21.9048 1.18394 18.7378 21.8762 1.21608 
18.7716 21.8476 1.24823 18.8055 21.819 1.28038 18.8394 21.7905 1.31253 
18.8733 21.7619 1.34468 18.743 22.7001 1.06207 18.7081 22.727 1.02949 
18.7778 22.6732 1.09465 18.8127 22.6463 1.12723 18.8475 22.6195 1.15981 
18.8824 22.5926 1.19239 18.9172 22.5657 1.22497 18.9521 22.5388 1.25755 
18.9869 22.5119 1.29013 19.0218 22.4851 1.32271 19.0567 22.4582 1.35529 
19.0915 22.4313 1.38787 19.1264 22.4044 1.42045 19.1612 22.3776 1.45303 
19.1961 22.3507 1.48561 18.9994 23.2856 1.26031 18.9643 23.312 1.22758 
19.0344 23.2592 1.29305 19.0695 23.2327 1.32578 19.1045 23.2063 1.35851 
19.1396 23.1799 1.39124 19.1746 23.1534 1.42398 19.2097 23.127 1.45671 
19.2447 23.1006 1.48944 19.2798 23.0741 1.52217 19.3148 23.0477 1.55491 
19.3499 23.0213 1.58764 19.3849 22.9948 1.62037 19.42 22.9684 1.6531 
19.455 22.942 1.68584 19.2342 23.8748 1.47984 19.199 23.901 1.44702 
19.2693 23.8486 1.51265 19.3044 23.8223 1.54546 19.3396 23.7961 1.57827 
19.3747 23.7699 1.61108 19.4098 23.7437 1.64389 19.445 23.7175 1.6767 
19.4801 23.6912 1.70951 19.5152 23.665 1.74232 19.5504 23.6388 1.77513 
19.5855 23.6126 1.80794 19.6206 23.5863 1.84075 19.6558 23.5601 1.87356 
19.6909 23.5339 1.90637 19.4891 24.4646 1.66666 19.4538 24.4903 1.63369 
19.5245 24.4389 1.69963 19.5598 24.4131 1.7326 19.5952 24.3874 1.76557 
19.6305 24.3617 1.79854 19.6659 24.3359 1.83151 19.7012 24.3102 1.86448 
19.7366 24.2845 1.89745 19.7719 24.2588 1.93042 19.8073 24.233 1.96339 
19.8426 24.2073 1.99636 19.878 24.1816 2.02933 19.9133 24.1559 2.0623 
19.9487 24.1301 2.09527 19.7593 25.0558 1.83144 19.7238 25.0812 1.79839 
19.7948 25.0304 1.86449 19.8303 25.0049 1.89755 19.8658 24.9795 1.9306 
19.9013 24.9541 1.96365 19.9367 24.9287 1.99671 19.9722 24.9032 2.02976 
20.0077 24.8778 2.06282 20.0432 24.8524 2.09587 20.0787 24.8269 2.12892 
20.1142 24.8015 2.16198 20.1497 24.7761 2.19503 20.1851 24.7506 2.22808 
[...]
CELL_DATA 1078
FIELD FieldData 1
vtkOriginalCellIds 1 1078 vtkIdType
8064 8065 8066 8067 8068 8069 8070 8071 8072 
8073 8074 8075 8076 8077 8078 8079 8080 8081 
8082 8083 8084 8085 8086 8087 8088 8089 8090 
8091 8092 8093 8094 8095 8096 8097 8098 8099 
8100 8101 8102 8103 8104 8105 8106 8107 8108 
8109 8110 8111 8112 8113 8114 8115 8116 8117 
8118 8119 8120 8121 8122 8123 8124 8125 8126 
8127 8128 8129 8130 8131 8132 8133 8134 8135 
8136 8137 8138 8139 8140 8141 8142 8143 8144 
8145 8146 8147 8148 8149 8150 8151 8152 8153 
8154 8155 8156 8157 8158 8159 8160 8161 8162 
8163 8164 8165 8166 8167 8168 8169 8170 8171 
8172 8173 8174 8175 8176 8177 8178 8179 8180 
8181 8182 8183 8184 8185 8186 8187 8188 8189 
8190 8191 8192 8193 8194 8195 8196 8197 8198 
8199 8200 8201 8202 8203 8204 8205 8206 8207 
8208 8209 8210 8211 8212 8213 8214 8215 8216 
8217 8218 8219 8220 8221 8222 8223 8224 8225 
8226 8227 8228 8229 8230 8231 8232 8233 8234 
8235 8236 8237 8238 8239 8240 8241 8242 8243 
8244 8245 8246 8247 8248 8249 8250 8251 8252 
8253 8254 8255 8256 8257 8258 8259 8260 8261 
8262 8263 8264 8265 8266 8267 8268 8269 8270 
8271 8272 8273 8274 8275 8276 8277 8278 8279 
8280 8281 8282 8283 8284 8285 8286 8287 8288 
8289 8290 8291 8292 8293 8294 8295 8296 8297 
8298 8299 8300 8301 8302 8303 8304 8305 8306 
8307 8308 8309 8310 8311 8312 8313 8314 8315 
8316 8317 8318 8319 8320 8321 8322 8323 8324 
8325 8326 8327 8328 8329 8330 8331 8332 8333 
8334 8335 8336 8337 8338 8339 8340 8341 8342 
8343 8344 8345 8346 8347 8348 8349 8350 8351 
8352 8353 8354 8355 8356 8357 8358 8359 8360 
8361 8362 8363 8364 8365 8366 8367 8368 8369 
8370 8371 8372 8373 8374 8375 8376 8377 8378 
8379 8380 8381 8382 8383 8384 8385 8386 8387 
8388 8389 8390 8391 8392 8393 8394 8395 8396 
8397 8398 8399 8400 8401 8402 8403 8404 8405 
8406 8407 8408 8409 8410 8411 8412 8413 8414 
8415 8416 8417 8418 8419 8420 8421 8422 8423 
8424 8425 8426 8427 8428 8429 8430 8431 8432 
8433 8434 8435 8436 8437 8438 8439 8440 8441 
8442 8443 8444 8445 8446 8447 8448 8449 8450 
8451 8452 8453 8454 8455 8456 8457 8458 8459 
8460 8461 8462 8463 8464 8465 8466 8467 8468 
8469 8470 8471 8472 8473 8474 8475 8476 8477 
8478 8479 8480 8481 8482 8483 8484 8485 8486 
8487 8488 8489 8490 8491 8492 8493 8494 8495 
8496 8497 8498 8499 8500 8501 8502 8503 8504 
8505 8506 8507 8508 8509 8510 8511 8512 8513 
8514 8515 8516 8517 8518 8519 8520 8521 8522 
8523 8524 8525 8526 8527 8528 8529 8530 8531 
8532 8533 8534 8535 8536 8537 8538 8539 8540 
8541 8542 8543 8544 8545 8546 8547 8548 8549 
8550 8551 8552 8553 8554 8555 8556 8557 8558 
8559 8560 8561 8562 8563 8564 8565 8566 8567 
8568 8569 8570 8571 8572 8573 8574 8575 8576 
8577 8578 8579 8580 8581 8582 8583 8584 8585 
8586 8587 8588 8589 8590 8591 8592 8593 8594 
8595 8596 8597 8598 8599 8600 8601 8602 8603 
8604 8605 8606 8607 8608 8609 8610 8611 8612 
8613 8614 8615 8616 8617 8618 8619 8620 8621 
8622 8623 8624 8625 8626 8627 8628 8629 8630 
8631 8632 8633 8634 8635 8636 8637 8638 8639 
8640 8641 8642 8643 8644 8645 8646 8647 8648 
8649 8650 8651 8652 8653 8654 8655 8656 8657 
8658 8659 8660 8661 8662 8663 8664 8665 8666 
8667 8668 8669 8670 8671 8672 8673 8674 8675 
8676 8677 8678 8679 8680 8681 8682 8683 8684 
8685 8686 8687 8688 8689 8690 8691 8692 8693 
8694 8695 8696 8697 8698 8699 8700 8701 8702 
8703 8704 8705 8706 8707 8708 8709 8710 8711 
8712 8713 8714 8715 8716 8717 8718 8719 8720 
8721 8722 8723 8724 8725 8726 8727 8728 8729 
8730 8731 8732 8733 8734 8735 8736 8737 8738 
8739 8740 8741 8742 8743 8744 8745 8746 8747 
8748 8749 8750 8751 8752 8753 8754 8755 8756 
8757 8758 8759 8760 8761 8762 8763 8764 8765 
8766 8767 8768 8769 8770 8771 8772 8773 8774 
8775 8776 8777 8778 8779 8780 8781 8782 8783 
8784 8785 8786 8787 8788 8789 8790 8791 8792 
8793 8794 8795 8796 8797 8798 8799 8800 8801 
8802 8803 8804 8805 8806 8807 8808 8809 8810 
8811 8812 8813 8814 8815 8816 8817 8818 8819 
8820 8821 8822 8823 8824 8825 8826 8827 8828 
8829 8830 8831 8832 8833 8834 8835 8836 8837 
8838 8839 8840 8841 8842 8843 8844 8845 8846 
8847 8848 8849 8850 8851 8852 8853 8854 8855 
8856 8857 8858 8859 8860 8861 8862 8863 8864 
8865 8866 8867 8868 8869 8870 8871 8872 8873 
8874 8875 8876 8877 8878 8879 8880 8881 8882 
8883 8884 8885 8886 8887 8888 8889 8890 8891 
8892 8893 8894 8895 8896 8897 8898 8899 8900 
8901 8902 8903 8904 8905 8906 8907 8908 8909 
8910 8911 8912 8913 8914 8915 8916 8917 8918 
8919 8920 8921 8922 8923 8924 8925 8926 8927 
8928 8929 8930 8931 8932 8933 8934 8935 8936 
8937 8938 8939 8940 8941 8942 8943 8944 8945 
8946 8947 8948 8949 8950 8951 8952 8953 8954 
8955 8956 8957 8958 8959 8960 8961 8962 8963 
8964 8965 8966 8967 8968 8969 8970 8971 8972 
8973 8974 8975 8976 8977 8978 8979 8980 8981 
8982 8983 8984 8985 8986 8987 8988 8989 8990 
8991 8992 8993 8994 8995 8996 8997 8998 8999 
9000 9001 9002 9003 9004 9005 9006 9007 9008 
9009 9010 9011 9012 9013 9014 9015 9016 9017 
9018 9019 9020 9021 9022 9023 9024 9025 9026 
9027 9028 9029 9030 9031 9032 9033 9034 9035 
9036 9037 9038 9039 9040 9041 9042 9043 9044 
9045 9046 9047 9048 9049 9050 9051 9052 9053 
9054 9055 9056 9057 9058 9059 9060 9061 9062 
9063 9064 9065 9066 9067 9068 9069 9070 9071 
9072 9073 9074 9075 9076 9077 9078 9079 9080 
9081 9082 9083 9084 9085 9086 9087 9088 9089 
9090 9091 9092 9093 9094 9095 9096 9097 9098 
9099 9100 9101 9102 9103 9104 9105 9106 9107 
9108 9109 9110 9111 9112 9113 9114 9115 9116 
9117 9118 9119 9120 9121 9122 9123 9124 9125 
9126 9127 9128 9129 9130 9131 9132 9133 9134 
9135 9136 9137 9138 9139 9140 9141 
POINT_DATA 1198
FIELD FieldData 1
vtkOriginalPointIds 1 1198 vtkIdType
6832 6838 6853 6847 6837 6852 6836 6851 6835 
6850 6834 6849 6833 6848 6824 6839 6826 6841 
6827 6842 6828 6843 6829 6844 6830 6845 6831 
6846 6825 6840 1912 1906 1911 1910 1909 1908 
1907 1898 1900 1901 1902 1903 1904 1905 1899 
9748 9742 9747 9746 9745 9744 9743 9734 9736 
9737 9738 9739 9740 9741 9735 9763 9757 9762 
9761 9760 9759 9758 9749 9751 9752 9753 9754 
9755 9756 9750 1890 1884 1889 1888 1887 1886 
1885 1876 1878 1879 1880 1881 1882 1883 1877 
1891 1897 9778 9772 1896 9777 1895 9776 1894 
9775 1893 9774 1892 9773 9764 9766 9767 9768 
9769 9770 9771 9765 9793 9787 9792 9791 9790 
9789 9788 9779 9781 9782 9783 9784 9785 9786 
9780 1927 1921 1926 1925 1924 1923 1922 1913 
1915 1916 1917 1918 1919 1920 1914 6868 6862 
6867 6866 6865 6864 6863 6854 6856 6857 6858 
6859 6860 6861 6855 6883 6877 6882 6881 6880 
6879 6878 6869 6871 6872 6873 6874 6875 6876 
6870 6898 6892 6897 6896 6895 6894 6893 6884 
6886 6887 6888 6889 6890 6891 6885 6913 6907 
6912 6911 6910 6909 6908 6899 6901 6902 6903 
6904 6905 6906 6900 6928 6922 6927 6926 6925 
6924 6923 6914 6916 6917 6918 6919 6920 6921 
6915 6943 6937 6942 6941 6940 6939 6938 6929 
6931 6932 6933 6934 6935 6936 6930 6958 6952 
6957 6956 6955 6954 6953 6944 6946 6947 6948 
6949 6950 6951 6945 6973 6967 6972 6971 6970 
6969 6968 6959 6961 6962 6963 6964 6965 6966 
6960 6988 6982 6987 6986 6985 6984 6983 6974 
6976 6977 6978 6979 6980 6981 6975 7003 6997 
7002 7001 7000 6999 6998 6989 6991 6992 6993 
6994 6995 6996 6990 7018 7012 7017 7016 7015 
7014 7013 7004 7006 7007 7008 7009 7010 7011 
7005 7033 7027 7032 7031 7030 7029 7028 7019 
7021 7022 7023 7024 7025 7026 7020 7048 7042 
7047 7046 7045 7044 7043 7034 7036 7037 7038 
7039 7040 7041 7035 7063 7057 7062 7061 7060 
7059 7058 7049 7051 7052 7053 7054 7055 7056 
7050 7078 7072 7077 7076 7075 7074 7073 7064 
7066 7067 7068 7069 7070 7071 7065 7093 7087 
7092 7091 7090 7089 7088 7079 7081 7082 7083 
7084 7085 7086 7080 7108 7102 7107 7106 7105 
7104 7103 7094 7096 7097 7098 7099 7100 7101 
7095 7123 7117 7122 7121 7120 7119 7118 7109 
7111 7112 7113 7114 7115 7116 7110 7138 7132 
7137 7136 7135 7134 7133 7124 7126 7127 7128 
7129 7130 7131 7125 7153 7147 7152 7151 7150 
7149 7148 7139 7141 7142 7143 7144 7145 7146 
7140 7168 7162 7167 7166 7165 7164 7163 7154 
7156 7157 7158 7159 7160 7161 7155 7183 7177 
7182 7181 7180 7179 7178 7169 7171 7172 7173 
7174 7175 7176 7170 9808 9802 9807 9806 9805 
9804 9803 9794 9796 9797 9798 9799 9800 9801 
9795 9823 9817 9822 9821 9820 9819 9818 9809 
9811 9812 9813 9814 9815 9816 9810 1942 1936 
1941 1940 1939 1938 1937 1928 1930 1931 1932 
1933 1934 1935 1929 1979 1973 1978 1977 1976 
1975 1974 1965 1967 1968 1969 1970 1971 1972 
1966 9838 9832 9837 9836 9835 9834 9833 9824 
9826 9827 9828 9829 9830 9831 9825 9853 9847 
9852 9851 9850 9849 9848 9839 9841 9842 9843 
9844 9845 9846 9840 1957 1951 1956 1955 1954 
1953 1952 1943 1945 1946 1947 1948 1949 1950 
1944 1958 1964 9868 9862 1963 9867 1962 9866 
1961 9865 1960 9864 1959 9863 9854 9856 9857 
9858 9859 9860 9861 9855 9883 9877 9882 9881 
9880 9879 9878 9869 9871 9872 9873 9874 9875 
9876 9870 1994 1988 1993 1992 1991 1990 1989 
1980 1982 1983 1984 1985 1986 1987 1981 7198 
7192 7197 7196 7195 7194 7193 7184 7186 7187 
7188 7189 7190 7191 7185 7213 7207 7212 7211 
7210 7209 7208 7199 7201 7202 7203 7204 7205 
7206 7200 7228 7222 7227 7226 7225 7224 7223 
7214 7216 7217 7218 7219 7220 7221 7215 7243 
7237 7242 7241 7240 7239 7238 7229 7231 7232 
7233 7234 7235 7236 7230 7258 7252 7257 7256 
7255 7254 7253 7244 7246 7247 7248 7249 7250 
7251 7245 7273 7267 7272 7271 7270 7269 7268 
7259 7261 7262 7263 7264 7265 7266 7260 9898 
9892 9897 9896 9895 9894 9893 9884 9886 9887 
9888 9889 9890 9891 9885 2009 2003 2008 2007 
2006 2005 2004 1995 1997 1998 1999 2000 2001 
2002 1996 2046 2040 2045 2044 2043 2042 2041 
2032 2034 2035 2036 2037 2038 2039 2033 9913 
9907 9912 9911 9910 9909 9908 9899 9901 9902 
9903 9904 9905 9906 9900 2024 2018 2023 2022 
2021 2020 2019 2010 2012 2013 2014 2015 2016 
2017 2011 2025 2031 9928 9922 2030 9927 2029 
9926 2028 9925 2027 9924 2026 9923 9914 9916 
9917 9918 9919 9920 9921 9915 9943 9937 9942 
9941 9940 9939 9938 9929 9931 9932 9933 9934 
9935 9936 9930 2061 2055 2060 2059 2058 2057 
2056 2047 2049 2050 2051 2052 2053 2054 2048 
7288 7282 7287 7286 7285 7284 7283 7274 7276 
7277 7278 7279 7280 7281 7275 7303 7297 7302 
7301 7300 7299 7298 7289 7291 7292 7293 7294 
7295 7296 7290 7318 7312 7317 7316 7315 7314 
7313 7304 7306 7307 7308 7309 7310 7311 7305 
7333 7327 7332 7331 7330 7329 7328 7319 7321 
7322 7323 7324 7325 7326 7320 7348 7342 7347 
7346 7345 7344 7343 7334 7336 7337 7338 7339 
7340 7341 7335 9958 9952 9957 9956 9955 9954 
9953 9944 9946 9947 9948 9949 9950 9951 9945 
2076 2070 2075 2074 2073 2072 2071 2062 2064 
2065 2066 2067 2068 2069 2063 2113 2107 2112 
2111 2110 2109 2108 2099 2101 2102 2103 2104 
2105 2106 2100 9973 9967 9972 9971 9970 9969 
9968 9959 9961 9962 9963 9964 9965 9966 9960 
2091 2085 2090 2089 2088 2087 2086 2077 2079 
2080 2081 2082 2083 2084 2078 2092 2098 9988 
9982 2097 9987 2096 9986 2095 9985 2094 9984 
2093 9983 9974 9976 9977 9978 9979 9980 9981 
9975 10003 9997 10002 10001 10000 9999 9998 9989 
9991 9992 9993 9994 9995 9996 9990 2128 2122 
2127 2126 2125 2124 2123 2114 2116 2117 2118 
2119 2120 2121 2115 7363 7357 7362 7361 7360 
7359 7358 7349 7351 7352 7353 7354 7355 7356 
7350 7378 7372 7377 7376 7375 7374 7373 7364 
7366 7367 7368 7369 7370 7371 7365 7393 7387 
7392 7391 7390 7389 7388 7379 7381 7382 7383 
7384 7385 7386 7380 10018 10012 10017 10016 10015 
10014 10013 10004 10006 10007 10008 10009 10010 10011 
10005 10033 10027 10032 10031 10030 10029 10028 10019 
10021 10022 10023 10024 10025 10026 10020 2143 2137 
2142 2141 2140 2139 2138 2129 2131 2132 2133 
2134 2135 2136 2130 7408 7402 7407 7406 7405 
7404 7403 7394 7396 7397 7398 7399 7400 7401 
7395 7423 7417 7422 7421 7420 7419 7418 7409 
7411 7412 7413 7414 7415 7416 7410 7438 7432 
7437 7436 7435 7434 7433 7424 7426 7427 7428 
7429 7430 7431 7425 7453 7447 7452 7451 7450 
7449 7448 7439 7441 7442 7443 7444 7445 7446 
7440 
