# vtk DataFile Version 2.0
Square plate test
ASCII
DATASET UNSTRUCTURED_GRID
POINTS 100 float
0 0.000000000 0
0.005000000 0.000000000 0
0.146428571 0.000000000 0
0.287857143 0.000000000 0
0.429285714 0.000000000 0
0.570714286 0.000000000 0
0.712142857 0.000000000 0
0.853571429 0.000000000 0
0.995000000 0.000000000 0
1.000000000 0.000000000 0
0.000000000 0.005000000 0
0.005000000 0.005000000 0
0.146428571 0.005000000 0
0.287857143 0.005000000 0
0.429285714 0.005000000 0
0.570714286 0.005000000 0
0.712142857 0.005000000 0
0.853571429 0.005000000 0
0.995000000 0.005000000 0
1.000000000 0.005000000 0
0.000000000 0.146428571 0
0.005000000 0.146428571 0
0.146428571 0.146428571 0
0.287857143 0.146428571 0
0.429285714 0.146428571 0
0.570714286 0.146428571 0
0.712142857 0.146428571 0
0.853571429 0.146428571 0
0.995000000 0.146428571 0
1.000000000 0.146428571 0
0.000000000 0.287857143 0
0.005000000 0.287857143 0
0.146428571 0.287857143 0
0.287857143 0.287857143 0
0.429285714 0.287857143 0
0.570714286 0.287857143 0
0.712142857 0.287857143 0
0.853571429 0.287857143 0
0.995000000 0.287857143 0
1.000000000 0.287857143 0
0.000000000 0.429285714 0
0.005000000 0.429285714 0
0.146428571 0.429285714 0
0.287857143 0.429285714 0
0.429285714 0.429285714 0
0.570714286 0.429285714 0
0.712142857 0.429285714 0
0.853571429 0.429285714 0
0.995000000 0.429285714 0
1.000000000 0.429285714 0
0.000000000 0.570714286 0
0.005000000 0.570714286 0
0.146428571 0.570714286 0
0.287857143 0.570714286 0
0.429285714 0.570714286 0
0.570714286 0.570714286 0
0.712142857 0.570714286 0
0.853571429 0.570714286 0
0.995000000 0.570714286 0
1.000000000 0.570714286 0
0.000000000 0.712142857 0
0.005000000 0.712142857 0
0.146428571 0.712142857 0
0.287857143 0.712142857 0
0.429285714 0.712142857 0
0.570714286 0.712142857 0
0.712142857 0.712142857 0
0.853571429 0.712142857 0
0.995000000 0.712142857 0
1.000000000 0.712142857 0
0.000000000 0.853571429 0
0.005000000 0.853571429 0
0.146428571 0.853571429 0
0.287857143 0.853571429 0
0.429285714 0.853571429 0
0.570714286 0.853571429 0
0.712142857 0.853571429 0
0.853571429 0.853571429 0
0.995000000 0.853571429 0
1.000000000 0.853571429 0
0.000000000 0.995000000 0
0.005000000 0.995000000 0
0.146428571 0.995000000 0
0.287857143 0.995000000 0
0.429285714 0.995000000 0
0.570714286 0.995000000 0
0.712142857 0.995000000 0
0.853571429 0.995000000 0
0.995000000 0.995000000 0
1.000000000 0.995000000 0
0.000000000 1.000000000 0
0.005000000 1.000000000 0
0.146428571 1.000000000 0
0.287857143 1.000000000 0
0.429285714 1.000000000 0
0.570714286 1.000000000 0
0.712142857 1.000000000 0
0.853571429 1.000000000 0
0.995000000 1.000000000 0
1.000000000 1.000000000 0

CELLS 81 405
4 0 1 11 10
4 1 2 12 11
4 2 3 13 12
4 3 4 14 13
4 4 5 15 14
4 5 6 16 15
4 6 7 17 16
4 7 8 18 17
4 8 9 19 18
4 10 11 21 20
4 11 12 22 21
4 12 13 23 22
4 13 14 24 23
4 14 15 25 24
4 15 16 26 25
4 16 17 27 26
4 17 18 28 27
4 18 19 29 28
4 20 21 31 30
4 21 22 32 31
4 22 23 33 32
4 23 24 34 33
4 24 25 35 34
4 25 26 36 35
4 26 27 37 36
4 27 28 38 37
4 28 29 39 38
4 30 31 41 40
4 31 32 42 41
4 32 33 43 42
4 33 34 44 43
4 34 35 45 44
4 35 36 46 45
4 36 37 47 46
4 37 38 48 47
4 38 39 49 48
4 40 41 51 50
4 41 42 52 51
4 42 43 53 52
4 43 44 54 53
4 44 45 55 54
4 45 46 56 55
4 46 47 57 56
4 47 48 58 57
4 48 49 59 58
4 50 51 61 60
4 51 52 62 61
4 52 53 63 62
4 53 54 64 63
4 54 55 65 64
4 55 56 66 65
4 56 57 67 66
4 57 58 68 67
4 58 59 69 68
4 60 61 71 70
4 61 62 72 71
4 62 63 73 72
4 63 64 74 73
4 64 65 75 74
4 65 66 76 75
4 66 67 77 76
4 67 68 78 77
4 68 69 79 78
4 70 71 81 80
4 71 72 82 81
4 72 73 83 82
4 73 74 84 83
4 74 75 85 84
4 75 76 86 85
4 76 77 87 86
4 77 78 88 87
4 78 79 89 88
4 80 81 91 90
4 81 82 92 91
4 82 83 93 92
4 83 84 94 93
4 84 85 95 94
4 85 86 96 95
4 86 87 97 96
4 87 88 98 97
4 88 89 99 98

CELL_TYPES 81
9
9
9
9
9
9
9
9
9
9
9
9
9
9
9
9
9
9
9
9
9
9
9
9
9
9
9
9
9
9
9
9
9
9
9
9
9
9
9
9
9
9
9
9
9
9
9
9
9
9
9
9
9
9
9
9
9
9
9
9
9
9
9
9
9
9
9
9
9
9
9
9
9
9
9
9
9
9
9
9
9
POINT_DATA 100
VECTORS y float
0 0 1.000000000
0 0 0.980100000
0 0 0.500051020
0 0 0.180018367
0 0 0.020002041
0 0 0.000000000
0 0 0.000000000
0 0 0.000000000
0 0 0.000000000
0 0 0.000000000
0 0 0.980100000
0 0 0.043314662
0 0 -0.002219238
0 0 -0.028587324
0 0 0.012415652
0 0 -0.009773590
0 0 0.006276194
0 0 -0.004240518
0 0 0.001346854
0 0 0.000000000
0 0 0.500051020
0 0 -0.002219238
0 0 0.410424191
0 0 0.040917556
0 0 0.021050337
0 0 0.001899756
0 0 -0.005329638
0 0 0.005995213
0 0 -0.002905099
0 0 0.000000000
0 0 0.180018367
0 0 -0.028587324
0 0 0.040917556
0 0 0.158352859
0 0 0.005364466
0 0 0.014707586
0 0 -0.003595070
0 0 0.000068416
0 0 0.001780250
0 0 0.000000000
0 0 0.020002041
0 0 0.012415652
0 0 0.021050337
0 0 0.005364466
0 0 0.033100653
0 0 -0.006681976
0 0 0.005889791
0 0 -0.003008520
0 0 -0.000382434
0 0 0.000000000
0 0 0.000000000
0 0 -0.009773590
0 0 0.001899756
0 0 0.014707586
0 0 -0.006681976
0 0 0.006323765
0 0 -0.004657094
0 0 0.002846371
0 0 -0.000368742
0 0 0.000000000
0 0 0.000000000
0 0 0.006276194
0 0 -0.005329638
0 0 -0.003595070
0 0 0.005889791
0 0 -0.004657094
0 0 0.002436558
0 0 -0.002543159
0 0 0.000563945
0 0 0.000000000
0 0 0.000000000
0 0 -0.004240518
0 0 0.005995213
0 0 0.000068416
0 0 -0.003008520
0 0 0.002846371
0 0 -0.002543159
0 0 0.001827095
0 0 -0.000717200
0 0 0.000000000
0 0 0.000000000
0 0 0.001346854
0 0 -0.002905099
0 0 0.001780250
0 0 -0.000382434
0 0 -0.000368742
0 0 0.000563945
0 0 -0.000717200
0 0 0.000457315
0 0 0.000000000
0 0 0.000000000
0 0 0.000000000
0 0 0.000000000
0 0 0.000000000
0 0 0.000000000
0 0 0.000000000
0 0 0.000000000
0 0 0.000000000
0 0 0.000000000
0 0 0.000000000
VECTORS u float
0 0 0.000000000
0 0 -0.000000000
0 0 0.000000000
0 0 -0.000000000
0 0 0.000000000
0 0 -0.000000000
0 0 0.000000000
0 0 0.000000000
0 0 -0.000000000
0 0 0.000000000
0 0 -0.000000000
0 0 2.141887149
0 0 1.200806494
0 0 0.002231709
0 0 0.275957713
0 0 -0.209445125
0 0 0.165164511
0 0 -0.139281792
0 0 0.065668095
0 0 -0.000000000
0 0 0.000000000
0 0 1.200806494
0 0 4.116832499
0 0 -0.809990151
0 0 0.897237608
0 0 -0.434784057
0 0 0.226424344
0 0 -0.105856908
0 0 -0.002459861
0 0 -0.000000000
0 0 -0.000000000
0 0 0.002231709
0 0 -0.809990151
0 0 -1.063284695
0 0 -0.554742269
0 0 0.130661980
0 0 -0.154958117
0 0 0.111206538
0 0 -0.021108188
0 0 -0.000000000
0 0 -0.000000000
0 0 0.275957713
0 0 0.897237608
0 0 -0.554742269
0 0 -0.306710797
0 0 -0.181769852
0 0 0.062091987
0 0 -0.069205882
0 0 0.021265381
0 0 0.000000000
0 0 0.000000000
0 0 -0.209445125
0 0 -0.434784057
0 0 0.130661980
0 0 -0.181769852
0 0 0.005771142
0 0 -0.055143403
0 0 0.044222454
0 0 -0.016810589
0 0 -0.000000000
0 0 -0.000000000
0 0 0.165164511
0 0 0.226424344
0 0 -0.154958117
0 0 0.062091987
0 0 -0.055143403
0 0 0.040392669
0 0 -0.032763890
0 0 0.013808556
0 0 0.000000000
0 0 0.000000000
0 0 -0.139281792
0 0 -0.105856908
0 0 0.111206538
0 0 -0.069205882
0 0 0.044222454
0 0 -0.032763890
0 0 0.034720524
0 0 -0.013911399
0 0 -0.000000000
0 0 -0.000000000
0 0 0.065668095
0 0 -0.002459861
0 0 -0.021108188
0 0 0.021265381
0 0 -0.016810589
0 0 0.013808556
0 0 -0.013911399
0 0 0.008211412
0 0 0.000000000
0 0 0.000000000
0 0 -0.000000000
0 0 0.000000000
0 0 -0.000000000
0 0 0.000000000
0 0 -0.000000000
0 0 0.000000000
0 0 -0.000000000
0 0 0.000000000
0 0 -0.000000000
VECTORS lamda float
0 0 0.000000000
0 0 0.000000000
0 0 0.000000000
0 0 0.000000000
0 0 0.000000000
0 0 0.000000000
0 0 0.000000000
0 0 0.000000000
0 0 0.000000000
0 0 0.000000000
0 0 0.000000000
0 0 0.021418871
0 0 0.012008065
0 0 0.000022317
0 0 0.002759577
0 0 -0.002094451
0 0 0.001651645
0 0 -0.001392818
0 0 0.000656681
0 0 0.000000000
0 0 0.000000000
0 0 0.012008065
0 0 0.041168325
0 0 -0.008099902
0 0 0.008972376
0 0 -0.004347841
0 0 0.002264243
0 0 -0.001058569
0 0 -0.000024599
0 0 0.000000000
0 0 0.000000000
0 0 0.000022317
0 0 -0.008099902
0 0 -0.010632847
0 0 -0.005547423
0 0 0.001306620
0 0 -0.001549581
0 0 0.001112065
0 0 -0.000211082
0 0 0.000000000
0 0 0.000000000
0 0 0.002759577
0 0 0.008972376
0 0 -0.005547423
0 0 -0.003067108
0 0 -0.001817699
0 0 0.000620920
0 0 -0.000692059
0 0 0.000212654
0 0 0.000000000
0 0 0.000000000
0 0 -0.002094451
0 0 -0.004347841
0 0 0.001306620
0 0 -0.001817699
0 0 0.000057711
0 0 -0.000551434
0 0 0.000442225
0 0 -0.000168106
0 0 0.000000000
0 0 0.000000000
0 0 0.001651645
0 0 0.002264243
0 0 -0.001549581
0 0 0.000620920
0 0 -0.000551434
0 0 0.000403927
0 0 -0.000327639
0 0 0.000138086
0 0 0.000000000
0 0 0.000000000
0 0 -0.001392818
0 0 -0.001058569
0 0 0.001112065
0 0 -0.000692059
0 0 0.000442225
0 0 -0.000327639
0 0 0.000347205
0 0 -0.000139114
0 0 0.000000000
0 0 0.000000000
0 0 0.000656681
0 0 -0.000024599
0 0 -0.000211082
0 0 0.000212654
0 0 -0.000168106
0 0 0.000138086
0 0 -0.000139114
0 0 0.000082114
0 0 0.000000000
0 0 0.000000000
0 0 0.000000000
0 0 0.000000000
0 0 0.000000000
0 0 0.000000000
0 0 0.000000000
0 0 0.000000000
0 0 0.000000000
0 0 0.000000000
0 0 0.000000000
