# vtk DataFile Version 2.0
Hex test
ASCII
DATASET UNSTRUCTURED_GRID
POINTS 784 float
0 0.000000000 0.000000000
0.024034400 0.000000000 0.000000000
0.074656133 0.000000000 0.000000000
0.134643000 0.000000000 0.000000000
0.000000000 0.024034400 0.000000000
0.024034400 0.024034400 0.000000000
0.074656133 0.024034400 0.000000000
0.134643000 0.024034400 0.000000000
0.000000000 0.074656133 0.000000000
0.024034400 0.074656133 0.000000000
0.074656133 0.074656133 0.000000000
0.134643000 0.074656133 0.000000000
0.000000000 0.134643000 0.000000000
0.024034400 0.134643000 0.000000000
0.074656133 0.134643000 0.000000000
0.134643000 0.134643000 0.000000000
0.134643000 0.000000000 0.000000000
0.190079148 0.000000000 0.000000000
0.240277519 0.000000000 0.000000000
0.287857000 0.000000000 0.000000000
0.134643000 0.024034400 0.000000000
0.190079148 0.024034400 0.000000000
0.240277519 0.024034400 0.000000000
0.287857000 0.024034400 0.000000000
0.134643000 0.074656133 0.000000000
0.190079148 0.074656133 0.000000000
0.240277519 0.074656133 0.000000000
0.287857000 0.074656133 0.000000000
0.134643000 0.134643000 0.000000000
0.190079148 0.134643000 0.000000000
0.240277519 0.134643000 0.000000000
0.287857000 0.134643000 0.000000000
0.287857000 0.000000000 0.000000000
0.335000000 0.000000000 0.000000000
0.382143000 0.000000000 0.000000000
0.429286000 0.000000000 0.000000000
0.287857000 0.024034400 0.000000000
0.335000000 0.024034400 0.000000000
0.382143000 0.024034400 0.000000000
0.429286000 0.024034400 0.000000000
0.287857000 0.074656133 0.000000000
0.335000000 0.074656133 0.000000000
0.382143000 0.074656133 0.000000000
0.429286000 0.074656133 0.000000000
0.287857000 0.134643000 0.000000000
0.335000000 0.134643000 0.000000000
0.382143000 0.134643000 0.000000000
0.429286000 0.134643000 0.000000000
0.429286000 0.000000000 0.000000000
0.476428741 0.000000000 0.000000000
0.523571259 0.000000000 0.000000000
0.570714000 0.000000000 0.000000000
0.429286000 0.024034400 0.000000000
0.476428741 0.024034400 0.000000000
0.523571259 0.024034400 0.000000000
0.570714000 0.024034400 0.000000000
0.429286000 0.074656133 0.000000000
0.476428741 0.074656133 0.000000000
0.523571259 0.074656133 0.000000000
0.570714000 0.074656133 0.000000000
0.429286000 0.134643000 0.000000000
0.476428741 0.134643000 0.000000000
0.523571259 0.134643000 0.000000000
0.570714000 0.134643000 0.000000000
0.570714000 0.000000000 0.000000000
0.617857000 0.000000000 0.000000000
0.665000000 0.000000000 0.000000000
0.712143000 0.000000000 0.000000000
0.570714000 0.024034400 0.000000000
0.617857000 0.024034400 0.000000000
0.665000000 0.024034400 0.000000000
0.712143000 0.024034400 0.000000000
0.570714000 0.074656133 0.000000000
0.617857000 0.074656133 0.000000000
0.665000000 0.074656133 0.000000000
0.712143000 0.074656133 0.000000000
0.570714000 0.134643000 0.000000000
0.617857000 0.134643000 0.000000000
0.665000000 0.134643000 0.000000000
0.712143000 0.134643000 0.000000000
0.712143000 0.000000000 0.000000000
0.759722481 0.000000000 0.000000000
0.809920852 0.000000000 0.000000000
0.865357000 0.000000000 0.000000000
0.712143000 0.024034400 0.000000000
0.759722481 0.024034400 0.000000000
0.809920852 0.024034400 0.000000000
0.865357000 0.024034400 0.000000000
0.712143000 0.074656133 0.000000000
0.759722481 0.074656133 0.000000000
0.809920852 0.074656133 0.000000000
0.865357000 0.074656133 0.000000000
0.712143000 0.134643000 0.000000000
0.759722481 0.134643000 0.000000000
0.809920852 0.134643000 0.000000000
0.865357000 0.134643000 0.000000000
0.865357000 0.000000000 0.000000000
0.925344000 0.000000000 0.000000000
0.975965667 0.000000000 0.000000000
1.000000000 0.000000000 0.000000000
0.865357000 0.024034400 0.000000000
0.925344000 0.024034400 0.000000000
0.975965667 0.024034400 0.000000000
1.000000000 0.024034400 0.000000000
0.865357000 0.074656133 0.000000000
0.925344000 0.074656133 0.000000000
0.975965667 0.074656133 0.000000000
1.000000000 0.074656133 0.000000000
0.865357000 0.134643000 0.000000000
0.925344000 0.134643000 0.000000000
0.975965667 0.134643000 0.000000000
1.000000000 0.134643000 0.000000000
0.000000000 0.134643000 0.000000000
0.024034400 0.134643000 0.000000000
0.074656133 0.134643000 0.000000000
0.134643000 0.134643000 0.000000000
0.000000000 0.190079148 0.000000000
0.024034400 0.190079148 0.000000000
0.074656133 0.190079148 0.000000000
0.134643000 0.190079148 0.000000000
0.000000000 0.240277519 0.000000000
0.024034400 0.240277519 0.000000000
0.074656133 0.240277519 0.000000000
0.134643000 0.240277519 0.000000000
0.000000000 0.287857000 0.000000000
0.024034400 0.287857000 0.000000000
0.074656133 0.287857000 0.000000000
0.134643000 0.287857000 0.000000000
0.134643000 0.134643000 0.000000000
0.190079148 0.134643000 0.000000000
0.240277519 0.134643000 0.000000000
0.287857000 0.134643000 0.000000000
0.134643000 0.190079148 0.000000000
0.190079148 0.190079148 0.000000000
0.240277519 0.190079148 0.000000000
0.287857000 0.190079148 0.000000000
0.134643000 0.240277519 0.000000000
0.190079148 0.240277519 0.000000000
0.240277519 0.240277519 0.000000000
0.287857000 0.240277519 0.000000000
0.134643000 0.287857000 0.000000000
0.190079148 0.287857000 0.000000000
0.240277519 0.287857000 0.000000000
0.287857000 0.287857000 0.000000000
0.287857000 0.134643000 0.000000000
0.335000000 0.134643000 0.000000000
0.382143000 0.134643000 0.000000000
0.429286000 0.134643000 0.000000000
0.287857000 0.190079148 0.000000000
0.335000000 0.190079148 0.000000000
0.382143000 0.190079148 0.000000000
0.429286000 0.190079148 0.000000000
0.287857000 0.240277519 0.000000000
0.335000000 0.240277519 0.000000000
0.382143000 0.240277519 0.000000000
0.429286000 0.240277519 0.000000000
0.287857000 0.287857000 0.000000000
0.335000000 0.287857000 0.000000000
0.382143000 0.287857000 0.000000000
0.429286000 0.287857000 0.000000000
0.429286000 0.134643000 0.000000000
0.476428741 0.134643000 0.000000000
0.523571259 0.134643000 0.000000000
0.570714000 0.134643000 0.000000000
0.429286000 0.190079148 0.000000000
0.476428741 0.190079148 0.000000000
0.523571259 0.190079148 0.000000000
0.570714000 0.190079148 0.000000000
0.429286000 0.240277519 0.000000000
0.476428741 0.240277519 0.000000000
0.523571259 0.240277519 0.000000000
0.570714000 0.240277519 0.000000000
0.429286000 0.287857000 0.000000000
0.476428741 0.287857000 0.000000000
0.523571259 0.287857000 0.000000000
0.570714000 0.287857000 0.000000000
0.570714000 0.134643000 0.000000000
0.617857000 0.134643000 0.000000000
0.665000000 0.134643000 0.000000000
0.712143000 0.134643000 0.000000000
0.570714000 0.190079148 0.000000000
0.617857000 0.190079148 0.000000000
0.665000000 0.190079148 0.000000000
0.712143000 0.190079148 0.000000000
0.570714000 0.240277519 0.000000000
0.617857000 0.240277519 0.000000000
0.665000000 0.240277519 0.000000000
0.712143000 0.240277519 0.000000000
0.570714000 0.287857000 0.000000000
0.617857000 0.287857000 0.000000000
0.665000000 0.287857000 0.000000000
0.712143000 0.287857000 0.000000000
0.712143000 0.134643000 0.000000000
0.759722481 0.134643000 0.000000000
0.809920852 0.134643000 0.000000000
0.865357000 0.134643000 0.000000000
0.712143000 0.190079148 0.000000000
0.759722481 0.190079148 0.000000000
0.809920852 0.190079148 0.000000000
0.865357000 0.190079148 0.000000000
0.712143000 0.240277519 0.000000000
0.759722481 0.240277519 0.000000000
0.809920852 0.240277519 0.000000000
0.865357000 0.240277519 0.000000000
0.712143000 0.287857000 0.000000000
0.759722481 0.287857000 0.000000000
0.809920852 0.287857000 0.000000000
0.865357000 0.287857000 0.000000000
0.865357000 0.134643000 0.000000000
0.925344000 0.134643000 0.000000000
0.975965667 0.134643000 0.000000000
1.000000000 0.134643000 0.000000000
0.865357000 0.190079148 0.000000000
0.925344000 0.190079148 0.000000000
0.975965667 0.190079148 0.000000000
1.000000000 0.190079148 0.000000000
0.865357000 0.240277519 0.000000000
0.925344000 0.240277519 0.000000000
0.975965667 0.240277519 0.000000000
1.000000000 0.240277519 0.000000000
0.865357000 0.287857000 0.000000000
0.925344000 0.287857000 0.000000000
0.975965667 0.287857000 0.000000000
1.000000000 0.287857000 0.000000000
0.000000000 0.287857000 0.000000000
0.024034400 0.287857000 0.000000000
0.074656133 0.287857000 0.000000000
0.134643000 0.287857000 0.000000000
0.000000000 0.335000000 0.000000000
0.024034400 0.335000000 0.000000000
0.074656133 0.335000000 0.000000000
0.134643000 0.335000000 0.000000000
0.000000000 0.382143000 0.000000000
0.024034400 0.382143000 0.000000000
0.074656133 0.382143000 0.000000000
0.134643000 0.382143000 0.000000000
0.000000000 0.429286000 0.000000000
0.024034400 0.429286000 0.000000000
0.074656133 0.429286000 0.000000000
0.134643000 0.429286000 0.000000000
0.134643000 0.287857000 0.000000000
0.190079148 0.287857000 0.000000000
0.240277519 0.287857000 0.000000000
0.287857000 0.287857000 0.000000000
0.134643000 0.335000000 0.000000000
0.190079148 0.335000000 0.000000000
0.240277519 0.335000000 0.000000000
0.287857000 0.335000000 0.000000000
0.134643000 0.382143000 0.000000000
0.190079148 0.382143000 0.000000000
0.240277519 0.382143000 0.000000000
0.287857000 0.382143000 0.000000000
0.134643000 0.429286000 0.000000000
0.190079148 0.429286000 0.000000000
0.240277519 0.429286000 0.000000000
0.287857000 0.429286000 0.000000000
0.287857000 0.287857000 0.000000000
0.335000000 0.287857000 0.000000000
0.382143000 0.287857000 0.000000000
0.429286000 0.287857000 0.000000000
0.287857000 0.335000000 0.000000000
0.335000000 0.335000000 0.000000000
0.382143000 0.335000000 0.000000000
0.429286000 0.335000000 0.000000000
0.287857000 0.382143000 0.000000000
0.335000000 0.382143000 0.000000000
0.382143000 0.382143000 0.000000000
0.429286000 0.382143000 0.000000000
0.287857000 0.429286000 0.000000000
0.335000000 0.429286000 0.000000000
0.382143000 0.429286000 0.000000000
0.429286000 0.429286000 0.000000000
0.429286000 0.287857000 0.000000000
0.476428741 0.287857000 0.000000000
0.523571259 0.287857000 0.000000000
[...]
POINT_DATA 784
VECTORS y float
1.000000000 0 0
0.917347313 0 0
0.751677822 0 0
0.566724383 0 0
0.917347313 0 0
0.476409844 0 0
0.278805102 0 0
0.203483949 0 0
0.751677822 0 0
0.278805102 0 0
0.129619726 0 0
0.122650390 0 0
0.566724383 0 0
0.203483949 0 0
0.122650390 0 0
0.151690818 0 0
0.566724383 0 0
0.414116327 0 0
0.297067388 0 0
0.206687988 0 0
0.203483949 0 0
0.150307227 0 0
0.102775631 0 0
0.065299846 0 0
0.122650390 0 0
0.109874172 0 0
0.077062455 0 0
0.043434896 0 0
0.151690818 0 0
0.151393617 0 0
0.115832373 0 0
0.072401935 0 0
0.206687988 0 0
0.135446002 0 0
0.081242874 0 0
0.043337822 0 0
0.065299846 0 0
0.040794142 0 0
0.026187971 0 0
0.016914415 0 0
0.043434896 0 0
0.023866440 0 0
0.015853096 0 0
0.012546132 0 0
0.072401935 0 0
0.042918370 0 0
0.026884155 0 0
0.018223234 0 0
0.043337822 0 0
0.020372470 0 0
0.008519391 0 0
0.003333680 0 0
0.016914415 0 0
0.009303737 0 0
0.003275209 0 0
-0.000354686 0 0
0.012546132 0 0
0.008504903 0 0
0.003921103 0 0
0.000394508 0 0
0.018223234 0 0
0.011873640 0 0
0.006829845 0 0
0.003100412 0 0
0.003333680 0 0
0.000987757 0 0
0.000123470 0 0
0.000000000 0 0
-0.000354686 0 0
-0.001160762 0 0
-0.000282952 0 0
0.000747514 0 0
0.000394508 0 0
-0.000922434 0 0
-0.000666588 0 0
0.000077852 0 0
0.003100412 0 0
0.000667378 0 0
-0.000593248 0 0
-0.000831965 0 0
0.000000000 0 0
0.000000000 0 0
0.000000000 0 0
0.000000000 0 0
0.000747514 0 0
0.000776837 0 0
0.000160898 0 0
-0.000366995 0 0
0.000077852 0 0
0.000440459 0 0
0.000405868 0 0
0.000172483 0 0
-0.000831965 0 0
-0.000283417 0 0
0.000481181 0 0
0.000806465 0 0
0.000000000 0 0
0.000000000 0 0
0.000000000 0 0
0.000000000 0 0
-0.000366995 0 0
-0.000292452 0 0
0.000023271 0 0
0.000000000 0 0
0.000172483 0 0
-0.000071061 0 0
-0.000175165 0 0
0.000000000 0 0
0.000806465 0 0
0.000311407 0 0
-0.000287643 0 0
0.000000000 0 0
0.566724383 0 0
0.203483949 0 0
0.122650390 0 0
0.151690818 0 0
0.414116327 0 0
0.150307227 0 0
0.109874172 0 0
0.151393617 0 0
0.297067388 0 0
0.102775631 0 0
0.077062455 0 0
0.115832373 0 0
0.206687988 0 0
0.065299846 0 0
0.043434896 0 0
0.072401935 0 0
0.151690818 0 0
0.151393617 0 0
0.115832373 0 0
0.072401935 0 0
0.151393617 0 0
0.160916413 0 0
0.134391459 0 0
0.095241971 0 0
0.115832373 0 0
0.134391459 0 0
0.125651347 0 0
0.101925077 0 0
0.072401935 0 0
0.095241971 0 0
0.101925077 0 0
0.094153470 0 0
0.072401935 0 0
0.042918370 0 0
0.026884155 0 0
0.018223234 0 0
0.095241971 0 0
0.062729354 0 0
0.039468358 0 0
0.023911993 0 0
0.101925077 0 0
0.074174659 0 0
0.047958245 0 0
0.027482949 0 0
0.094153470 0 0
0.074653464 0 0
0.050247651 0 0
0.028782668 0 0
0.018223234 0 0
0.011873640 0 0
0.006829845 0 0
0.003100412 0 0
0.023911993 0 0
0.014425692 0 0
0.009024702 0 0
0.005636694 0 0
0.027482949 0 0
0.015649214 0 0
0.010130864 0 0
0.007295052 0 0
0.028782668 0 0
0.016150437 0 0
0.010424004 0 0
0.007721696 0 0
0.003100412 0 0
0.000667378 0 0
-0.000593248 0 0
-0.000831965 0 0
0.005636694 0 0
0.002638195 0 0
0.000201185 0 0
-0.001053495 0 0
0.007295052 0 0
0.004279041 0 0
0.001300552 0 0
-0.000652587 0 0
0.007721696 0 0
0.004943822 0 0
0.002118627 0 0
0.000056332 0 0
-0.000831965 0 0
-0.000283417 0 0
0.000481181 0 0
0.000806465 0 0
-0.001053495 0 0
-0.000785708 0 0
0.000221864 0 0
0.000905832 0 0
-0.000652587 0 0
-0.000923862 0 0
-0.000182015 0 0
0.000572895 0 0
0.000056332 0 0
-0.000671960 0 0
-0.000451631 0 0
0.000092815 0 0
0.000806465 0 0
0.000311407 0 0
-0.000287643 0 0
0.000000000 0 0
0.000905832 0 0
0.000559021 0 0
-0.000100889 0 0
0.000000000 0 0
0.000572895 0 0
0.000603204 0 0
0.000220808 0 0
0.000000000 0 0
0.000092815 0 0
0.000432215 0 0
0.000418765 0 0
0.000000000 0 0
0.206687988 0 0
0.065299846 0 0
0.043434896 0 0
0.072401935 0 0
0.135446002 0 0
0.040794142 0 0
0.023866440 0 0
0.042918370 0 0
0.081242874 0 0
0.026187971 0 0
0.015853096 0 0
0.026884155 0 0
0.043337822 0 0
0.016914415 0 0
0.012546132 0 0
0.018223234 0 0
0.072401935 0 0
0.095241971 0 0
0.101925077 0 0
0.094153470 0 0
0.042918370 0 0
0.062729354 0 0
0.074174659 0 0
0.074653464 0 0
0.026884155 0 0
0.039468358 0 0
0.047958245 0 0
0.050247651 0 0
0.018223234 0 0
0.023911993 0 0
0.027482949 0 0
0.028782668 0 0
0.094153470 0 0
0.074653464 0 0
0.050247651 0 0
0.028782668 0 0
0.074653464 0 0
0.063174570 0 0
0.045185287 0 0
0.027742530 0 0
0.050247651 0 0
0.045185287 0 0
0.035439415 0 0
0.024633175 0 0
0.028782668 0 0
0.027742530 0 0
0.024633175 0 0
0.019810050 0 0
0.028782668 0 0
0.016150437 0 0
0.010424004 0 0
0.007721696 0 0
0.027742530 0 0
0.016329092 0 0
0.010131301 0 0
0.006761356 0 0
0.024633175 0 0
0.015758922 0 0
0.009285969 0 0
0.005052844 0 0
0.019810050 0 0
0.013807166 0 0
0.007872731 0 0
0.003433493 0 0
0.007721696 0 0
0.004943822 0 0
0.002118627 0 0
0.000056332 0 0
0.006761356 0 0
0.004240090 0 0
0.002222882 0 0
0.000773739 0 0
0.005052844 0 0
0.002789997 0 0
0.001795590 0 0
0.001259711 0 0
0.003433493 0 0
0.001469342 0 0
0.001172725 0 0
0.001289226 0 0
0.000056332 0 0
-0.000671960 0 0
-0.000451631 0 0
0.000092815 0 0
0.000773739 0 0
-0.000071638 0 0
-0.000390782 0 0
-0.000289534 0 0
0.001259711 0 0
0.000565242 0 0
-0.000133751 0 0
-0.000490406 0 0
0.001289226 0 0
0.000859262 0 0
0.000102558 0 0
-0.000466331 0 0
0.000092815 0 0
0.000432215 0 0
0.000418765 0 0
0.000000000 0 0
-0.000289534 0 0
0.000071516 0 0
0.000312800 0 0
0.000000000 0 0
-0.000490406 0 0
-0.000304611 0 0
0.000036739 0 0
0.000000000 0 0
-0.000466331 0 0
-0.000484681 0 0
-0.000197094 0 0
0.000000000 0 0
0.043337822 0 0
0.016914415 0 0
0.012546132 0 0
0.018223234 0 0
0.020372470 0 0
0.009303737 0 0
0.008504903 0 0
0.011873640 0 0
0.008519391 0 0
0.003275209 0 0
0.003921103 0 0
0.006829845 0 0
0.003333680 0 0
-0.000354686 0 0
0.000394508 0 0
0.003100412 0 0
0.018223234 0 0
0.023911993 0 0
0.027482949 0 0
0.028782668 0 0
0.011873640 0 0
0.014425692 0 0
0.015649214 0 0
0.016150437 0 0
0.006829845 0 0
0.009024702 0 0
0.010130864 0 0
0.010424004 0 0
0.003100412 0 0
0.005636694 0 0
0.007295052 0 0
0.007721696 0 0
0.028782668 0 0
0.027742530 0 0
0.024633175 0 0
0.019810050 0 0
0.016150437 0 0
0.016329092 0 0
0.015758922 0 0
0.013807166 0 0
0.010424004 0 0
0.010131301 0 0
0.009285969 0 0
0.007872731 0 0
0.007721696 0 0
0.006761356 0 0
0.005052844 0 0
0.003433493 0 0
0.019810050 0 0
0.013807166 0 0
0.007872731 0 0
0.003433493 0 0
0.013807166 0 0
0.010181367 0 0
0.005950268 0 0
0.002522911 0 0
0.007872731 0 0
0.005950268 0 0
0.003873123 0 0
0.002069798 0 0
0.003433493 0 0
0.002522911 0 0
0.002069798 0 0
0.001605125 0 0
0.003433493 0 0
0.001469342 0 0
0.001172725 0 0
0.001289226 0 0
0.002522911 0 0
0.000922975 0 0
0.000632702 0 0
0.000748975 0 0
0.002069798 0 0
0.000871931 0 0
0.000223720 0 0
-0.000027503 0 0
0.001605125 0 0
0.000806296 0 0
-0.000063577 0 0
-0.000594953 0 0
0.001289226 0 0
0.000859262 0 0
0.000102558 0 0
-0.000466331 0 0
0.000748975 0 0
0.000564127 0 0
0.000152298 0 0
-0.000216922 0 0
-0.000027503 0 0
-0.000033970 0 0
0.000053843 0 0
0.000085896 0 0
-0.000594953 0 0
-0.000515709 0 0
-0.000103372 0 0
0.000227115 0 0
-0.000466331 0 0
-0.000484681 0 0
-0.000197094 0 0
0.000000000 0 0
-0.000216922 0 0
-0.000334198 0 0
-0.000231237 0 0
0.000000000 0 0
0.000085896 0 0
-0.000026635 0 0
-0.000127691 0 0
0.000000000 0 0
0.000227115 0 0
0.000187548 0 0
-0.000003320 0 0
0.000000000 0 0
0.003333680 0 0
-0.000354686 0 0
0.000394508 0 0
0.003100412 0 0
0.000987757 0 0
-0.001160762 0 0
-0.000922434 0 0
0.000667378 0 0
0.000123470 0 0
-0.000282952 0 0
-0.000666588 0 0
-0.000593248 0 0
0.000000000 0 0
0.000747514 0 0
0.000077852 0 0
-0.000831965 0 0
0.003100412 0 0
0.005636694 0 0
0.007295052 0 0
0.007721696 0 0
0.000667378 0 0
0.002638195 0 0
0.004279041 0 0
0.004943822 0 0
-0.000593248 0 0
0.000201185 0 0
0.001300552 0 0
0.002118627 0 0
-0.000831965 0 0
-0.001053495 0 0
-0.000652587 0 0
0.000056332 0 0
0.007721696 0 0
0.006761356 0 0
0.005052844 0 0
0.003433493 0 0
0.004943822 0 0
0.004240090 0 0
0.002789997 0 0
0.001469342 0 0
0.002118627 0 0
0.002222882 0 0
0.001795590 0 0
0.001172725 0 0
0.000056332 0 0
0.000773739 0 0
0.001259711 0 0
0.001289226 0 0
0.003433493 0 0
0.002522911 0 0
0.002069798 0 0
0.001605125 0 0
0.001469342 0 0
0.000922975 0 0
0.000871931 0 0
0.000806296 0 0
0.001172725 0 0
0.000632702 0 0
0.000223720 0 0
-0.000063577 0 0
0.001289226 0 0
0.000748975 0 0
-0.000027503 0 0
-0.000594953 0 0
0.001605125 0 0
0.000806296 0 0
-0.000063577 0 0
-0.000594953 0 0
0.000806296 0 0
0.000362006 0 0
-0.000241594 0 0
-0.000639308 0 0
-0.000063577 0 0
-0.000241594 0 0
-0.000334932 0 0
-0.000371237 0 0
-0.000594953 0 0
-0.000639308 0 0
-0.000371237 0 0
-0.000132596 0 0
-0.000594953 0 0
-0.000515709 0 0
-0.000103372 0 0
0.000227115 0 0
-0.000639308 0 0
-0.000576569 0 0
-0.000241338 0 0
0.000067795 0 0
-0.000371237 0 0
-0.000371206 0 0
-0.000327732 0 0
-0.000226759 0 0
-0.000132596 0 0
-0.000169069 0 0
-0.000341654 0 0
-0.000415177 0 0
0.000227115 0 0
0.000187548 0 0
-0.000003320 0 0
0.000000000 0 0
0.000067795 0 0
0.000131769 0 0
0.000049642 0 0
0.000000000 0 0
-0.000226759 0 0
-0.000075032 0 0
0.000037478 0 0
0.000000000 0 0
-0.000415177 0 0
-0.000240034 0 0
-0.000008895 0 0
0.000000000 0 0
0.000000000 0 0
0.000747514 0 0
0.000077852 0 0
-0.000831965 0 0
0.000000000 0 0
0.000776837 0 0
0.000440459 0 0
-0.000283417 0 0
0.000000000 0 0
0.000160898 0 0
0.000405868 0 0
0.000481181 0 0
0.000000000 0 0
-0.000366995 0 0
0.000172483 0 0
0.000806465 0 0
-0.000831965 0 0
-0.001053495 0 0
-0.000652587 0 0
0.000056332 0 0
-0.000283417 0 0
-0.000785708 0 0
-0.000923862 0 0
-0.000671960 0 0
0.000481181 0 0
0.000221864 0 0
-0.000182015 0 0
-0.000451631 0 0
0.000806465 0 0
0.000905832 0 0
0.000572895 0 0
0.000092815 0 0
0.000056332 0 0
0.000773739 0 0
0.001259711 0 0
0.001289226 0 0
-0.000671960 0 0
-0.000071638 0 0
0.000565242 0 0
0.000859262 0 0
-0.000451631 0 0
-0.000390782 0 0
-0.000133751 0 0
0.000102558 0 0
0.000092815 0 0
-0.000289534 0 0
-0.000490406 0 0
-0.000466331 0 0
0.001289226 0 0
0.000748975 0 0
-0.000027503 0 0
-0.000594953 0 0
0.000859262 0 0
0.000564127 0 0
-0.000033970 0 0
-0.000515709 0 0
0.000102558 0 0
0.000152298 0 0
0.000053843 0 0
-0.000103372 0 0
-0.000466331 0 0
-0.000216922 0 0
0.000085896 0 0
0.000227115 0 0
-0.000594953 0 0
-0.000639308 0 0
-0.000371237 0 0
-0.000132596 0 0
-0.000515709 0 0
-0.000576569 0 0
-0.000371206 0 0
-0.000169069 0 0
-0.000103372 0 0
-0.000241338 0 0
-0.000327732 0 0
-0.000341654 0 0
0.000227115 0 0
0.000067795 0 0
-0.000226759 0 0
-0.000415177 0 0
-0.000132596 0 0
-0.000169069 0 0
-0.000341654 0 0
-0.000415177 0 0
-0.000169069 0 0
-0.000167534 0 0
-0.000275675 0 0
-0.000330491 0 0
-0.000341654 0 0
-0.000275675 0 0
-0.000176255 0 0
-0.000103326 0 0
-0.000415177 0 0
-0.000330491 0 0
-0.000103326 0 0
0.000061294 0 0
-0.000415177 0 0
-0.000240034 0 0
-0.000008895 0 0
0.000000000 0 0
-0.000330491 0 0
-0.000222872 0 0
-0.000059263 0 0
0.000000000 0 0
-0.000103326 0 0
-0.000093013 0 0
-0.000086209 0 0
0.000000000 0 0
0.000061294 0 0
0.000027617 0 0
-0.000063017 0 0
0.000000000 0 0
0.000000000 0 0
-0.000366995 0 0
0.000172483 0 0
0.000806465 0 0
0.000000000 0 0
-0.000292452 0 0
-0.000071061 0 0
0.000311407 0 0
0.000000000 0 0
0.000023271 0 0
-0.000175165 0 0
-0.000287643 0 0
0.000000000 0 0
0.000000000 0 0
0.000000000 0 0
0.000000000 0 0
0.000806465 0 0
0.000905832 0 0
0.000572895 0 0
0.000092815 0 0
0.000311407 0 0
0.000559021 0 0
0.000603204 0 0
0.000432215 0 0
-0.000287643 0 0
-0.000100889 0 0
0.000220808 0 0
0.000418765 0 0
0.000000000 0 0
0.000000000 0 0
0.000000000 0 0
0.000000000 0 0
0.000092815 0 0
-0.000289534 0 0
-0.000490406 0 0
-0.000466331 0 0
0.000432215 0 0
0.000071516 0 0
-0.000304611 0 0
-0.000484681 0 0
0.000418765 0 0
0.000312800 0 0
0.000036739 0 0
-0.000197094 0 0
0.000000000 0 0
0.000000000 0 0
0.000000000 0 0
0.000000000 0 0
-0.000466331 0 0
-0.000216922 0 0
0.000085896 0 0
0.000227115 0 0
-0.000484681 0 0
-0.000334198 0 0
-0.000026635 0 0
0.000187548 0 0
-0.000197094 0 0
-0.000231237 0 0
-0.000127691 0 0
-0.000003320 0 0
0.000000000 0 0
0.000000000 0 0
0.000000000 0 0
0.000000000 0 0
0.000227115 0 0
0.000067795 0 0
-0.000226759 0 0
-0.000415177 0 0
0.000187548 0 0
0.000131769 0 0
-0.000075032 0 0
-0.000240034 0 0
-0.000003320 0 0
0.000049642 0 0
0.000037478 0 0
-0.000008895 0 0
0.000000000 0 0
0.000000000 0 0
0.000000000 0 0
0.000000000 0 0
-0.000415177 0 0
-0.000330491 0 0
-0.000103326 0 0
0.000061294 0 0
-0.000240034 0 0
-0.000222872 0 0
-0.000093013 0 0
0.000027617 0 0
-0.000008895 0 0
-0.000059263 0 0
-0.000086209 0 0
-0.000063017 0 0
0.000000000 0 0
0.000000000 0 0
0.000000000 0 0
0.000000000 0 0
0.000061294 0 0
0.000027617 0 0
-0.000063017 0 0
0.000000000 0 0
0.000027617 0 0
0.000049876 0 0
0.000015749 0 0
0.000000000 0 0
-0.000063017 0 0
0.000015749 0 0
0.000070408 0 0
0.000000000 0 0
0.000000000 0 0
0.000000000 0 0
0.000000000 0 0
0.000000000 0 0
VECTORS u float
0.000000000 0 0
-0.000000000 0 0
0.000000000 0 0
0.000000000 0 0
-0.000000000 0 0
0.934480629 0 0
1.186177606 0 0
1.034922507 0 0
-0.000000000 0 0
1.186177606 0 0
1.676280433 0 0
1.622996290 0 0
0.000000000 0 0
1.034922507 0 0
1.622996290 0 0
1.698122120 0 0
0.000000000 0 0
0.000000000 0 0
-0.000000000 0 0
-0.000000000 0 0
1.034922507 0 0
0.731345020 0 0
0.409269878 0 0
0.173319378 0 0
1.622996290 0 0
1.196392590 0 0
0.636060525 0 0
0.198969339 0 0
1.698122120 0 0
1.264333363 0 0
0.606177437 0 0
0.078334620 0 0
-0.000000000 0 0
-0.000000000 0 0
0.000000000 0 0
0.000000000 0 0
0.173319378 0 0
0.094951846 0 0
0.112970167 0 0
0.133013002 0 0
0.198969339 0 0
0.068350117 0 0
0.132479453 0 0
0.205895410 0 0
0.078334620 0 0
-0.062508885 0 0
0.048374603 0 0
0.177721119 0 0
0.000000000 0 0
0.000000000 0 0
0.000000000 0 0
-0.000000000 0 0
0.133013002 0 0
0.086170033 0 0
0.005335312 0 0
-0.051146007 0 0
0.205895410 0 0
0.151151264 0 0
0.022861617 0 0
-0.076343649 0 0
0.177721119 0 0
0.150583450 0 0
0.025278211 0 0
-0.081561265 0 0
-0.000000000 0 0
-0.000000000 0 0
-0.000000000 0 0
0.000000000 0 0
-0.051146007 0 0
-0.042407783 0 0
0.002500380 0 0
0.037049797 0 0
-0.076343649 0 0
-0.072685079 0 0
-0.007785242 0 0
0.047882805 0 0
-0.081561265 0 0
-0.084304424 0 0
-0.021327799 0 0
0.037989830 0 0
0.000000000 0 0
0.000000000 0 0
0.000000000 0 0
0.000000000 0 0
0.037049797 0 0
0.028141917 0 0
-0.003601726 0 0
-0.024129432 0 0
0.047882805 0 0
0.043024879 0 0
0.003062402 0 0
-0.027404298 0 0
0.037989830 0 0
0.042112028 0 0
0.010869746 0 0
-0.018063958 0 0
0.000000000 0 0
-0.000000000 0 0
-0.000000000 0 0
0.000000000 0 0
-0.024129432 0 0
-0.011319188 0 0
0.009232638 0 0
-0.000000000 0 0
-0.027404298 0 0
-0.018003493 0 0
0.004721824 0 0
-0.000000000 0 0
-0.018063958 0 0
-0.017598467 0 0
-0.002970771 0 0
-0.000000000 0 0
0.000000000 0 0
1.034922507 0 0
1.622996290 0 0
1.698122120 0 0
0.000000000 0 0
0.731345020 0 0
1.196392590 0 0
1.264333363 0 0
0.000000000 0 0
0.409269878 0 0
0.636060525 0 0
0.606177437 0 0
-0.000000000 0 0
0.173319378 0 0
0.198969339 0 0
0.078334620 0 0
1.698122120 0 0
1.264333363 0 0
0.606177437 0 0
0.078334620 0 0
1.264333363 0 0
0.880465223 0 0
0.294518034 0 0
-0.167671244 0 0
0.606177437 0 0
0.294518034 0 0
-0.127663238 0 0
-0.440021411 0 0
0.078334620 0 0
-0.167671244 0 0
-0.440021411 0 0
-0.620160699 0 0
0.078334620 0 0
-0.062508885 0 0
0.048374603 0 0
0.177721119 0 0
-0.167671244 0 0
-0.269804673 0 0
-0.133734573 0 0
0.029148411 0 0
-0.440021411 0 0
-0.483623483 0 0
-0.345181699 0 0
-0.172820356 0 0
-0.620160699 0 0
-0.623527683 0 0
-0.501537159 0 0
-0.339598266 0 0
0.177721119 0 0
0.150583450 0 0
0.025278211 0 0
-0.081561265 0 0
0.029148411 0 0
0.057877356 0 0
-0.006821527 0 0
-0.073798311 0 0
-0.172820356 0 0
-0.082468061 0 0
-0.061271633 0 0
-0.064182173 0 0
-0.339598266 0 0
-0.208182731 0 0
-0.118012405 0 0
-0.064871623 0 0
-0.081561265 0 0
-0.084304424 0 0
-0.021327799 0 0
0.037989830 0 0
-0.073798311 0 0
-0.074464721 0 0
-0.030477982 0 0
0.013943183 0 0
-0.064182173 0 0
-0.055272721 0 0
-0.035103523 0 0
-0.013356757 0 0
-0.064871623 0 0
-0.042561675 0 0
-0.036951738 0 0
-0.031927985 0 0
0.037989830 0 0
0.042112028 0 0
0.010869746 0 0
-0.018063958 0 0
0.013943183 0 0
0.025262909 0 0
0.012676166 0 0
-0.003939285 0 0
-0.013356757 0 0
0.001924216 0 0
0.009251035 0 0
0.008774163 0 0
-0.031927985 0 0
-0.016060869 0 0
0.003342136 0 0
0.014289333 0 0
-0.018063958 0 0
-0.017598467 0 0
-0.002970771 0 0
-0.000000000 0 0
-0.003939285 0 0
-0.009180546 0 0
-0.005543802 0 0
-0.000000000 0 0
0.008774163 0 0
0.002050436 0 0
-0.003737340 0 0
-0.000000000 0 0
0.014289333 0 0
0.009363824 0 0
-0.000551749 0 0
-0.000000000 0 0
-0.000000000 0 0
0.173319378 0 0
0.198969339 0 0
0.078334620 0 0
-0.000000000 0 0
0.094951846 0 0
0.068350117 0 0
-0.062508885 0 0
-0.000000000 0 0
0.112970167 0 0
0.132479453 0 0
0.048374603 0 0
-0.000000000 0 0
0.133013002 0 0
0.205895410 0 0
0.177721119 0 0
0.078334620 0 0
-0.167671244 0 0
-0.440021411 0 0
-0.620160699 0 0
-0.062508885 0 0
-0.269804673 0 0
-0.483623483 0 0
-0.623527683 0 0
0.048374603 0 0
-0.133734573 0 0
-0.345181699 0 0
-0.501537159 0 0
0.177721119 0 0
0.029148411 0 0
-0.172820356 0 0
-0.339598266 0 0
-0.620160699 0 0
-0.623527683 0 0
-0.501537159 0 0
-0.339598266 0 0
-0.623527683 0 0
-0.631623034 0 0
-0.540189265 0 0
-0.404049672 0 0
-0.501537159 0 0
-0.540189265 0 0
-0.485798648 0 0
-0.384843871 0 0
-0.339598266 0 0
-0.404049672 0 0
-0.384843871 0 0
-0.322101365 0 0
-0.339598266 0 0
-0.208182731 0 0
-0.118012405 0 0
-0.064871623 0 0
-0.404049672 0 0
-0.270899133 0 0
-0.159919436 0 0
-0.083163919 0 0
-0.384843871 0 0
-0.277860093 0 0
-0.181609451 0 0
-0.106910628 0 0
-0.322101365 0 0
-0.250210976 0 0
-0.180634518 0 0
-0.119101984 0 0
-0.064871623 0 0
-0.042561675 0 0
-0.036951738 0 0
-0.031927985 0 0
-0.083163919 0 0
-0.047305100 0 0
-0.037492565 0 0
-0.033495090 0 0
-0.106910628 0 0
-0.061037694 0 0
-0.037086675 0 0
-0.024608964 0 0
-0.119101984 0 0
-0.070434472 0 0
-0.035817358 0 0
-0.015527056 0 0
-0.031927985 0 0
-0.016060869 0 0
0.003342136 0 0
0.014289333 0 0
-0.033495090 0 0
-0.020149002 0 0
-0.002560875 0 0
0.009095186 0 0
-0.024608964 0 0
-0.014996191 0 0
-0.007000873 0 0
-0.001215760 0 0
-0.015527056 0 0
-0.008558271 0 0
-0.008778874 0 0
-0.008775026 0 0
0.014289333 0 0
0.009363824 0 0
-0.000551749 0 0
-0.000000000 0 0
0.009095186 0 0
0.008099479 0 0
0.001550215 0 0
0.000000000 0 0
-0.001215760 0 0
0.001879365 0 0
0.002256341 0 0
0.000000000 0 0
-0.008775026 0 0
-0.003604042 0 0
0.001792021 0 0
0.000000000 0 0
-0.000000000 0 0
0.133013002 0 0
0.205895410 0 0
0.177721119 0 0
0.000000000 0 0
0.086170033 0 0
0.151151264 0 0
0.150583450 0 0
0.000000000 0 0
0.005335312 0 0
0.022861617 0 0
0.025278211 0 0
0.000000000 0 0
-0.051146007 0 0
-0.076343649 0 0
-0.081561265 0 0
0.177721119 0 0
0.029148411 0 0
-0.172820356 0 0
-0.339598266 0 0
0.150583450 0 0
0.057877356 0 0
-0.082468061 0 0
-0.208182731 0 0
0.025278211 0 0
-0.006821527 0 0
-0.061271633 0 0
-0.118012405 0 0
-0.081561265 0 0
-0.073798311 0 0
-0.064182173 0 0
-0.064871623 0 0
-0.339598266 0 0
-0.404049672 0 0
-0.384843871 0 0
-0.322101365 0 0
-0.208182731 0 0
-0.270899133 0 0
-0.277860093 0 0
-0.250210976 0 0
-0.118012405 0 0
-0.159919436 0 0
-0.181609451 0 0
-0.180634518 0 0
-0.064871623 0 0
-0.083163919 0 0
-0.106910628 0 0
-0.119101984 0 0
-0.322101365 0 0
-0.250210976 0 0
-0.180634518 0 0
-0.119101984 0 0
-0.250210976 0 0
-0.206755459 0 0
-0.156930509 0 0
-0.107831367 0 0
-0.180634518 0 0
-0.156930509 0 0
-0.119968813 0 0
-0.081604594 0 0
-0.119101984 0 0
-0.107831367 0 0
-0.081604594 0 0
-0.054030562 0 0
-0.119101984 0 0
-0.070434472 0 0
-0.035817358 0 0
-0.015527056 0 0
-0.107831367 0 0
-0.065737433 0 0
-0.033664914 0 0
-0.013814156 0 0
-0.081604594 0 0
-0.051456552 0 0
-0.030197675 0 0
-0.016264469 0 0
-0.054030562 0 0
-0.035668765 0 0
-0.024880989 0 0
-0.016979569 0 0
-0.015527056 0 0
-0.008558271 0 0
-0.008778874 0 0
-0.008775026 0 0
-0.013814156 0 0
-0.006844036 0 0
-0.007247588 0 0
-0.007976376 0 0
-0.016264469 0 0
-0.008074096 0 0
-0.003966457 0 0
-0.002262105 0 0
-0.016979569 0 0
-0.008522028 0 0
-0.001046602 0 0
0.002663305 0 0
-0.008775026 0 0