# vtk DataFile Version 2.0
Square plate test
ASCII
DATASET UNSTRUCTURED_GRID
POINTS 91 float
10 0.5 0
9.95 0.5 2.4403e-312
8.96 0.5 0
7.97 0.5 0
6.98 0.5 0
5.99 0.5 0
5 0.5 0
4.01 0.5 0
3.02 0.5 0
2.03 0.5 0
1.04 0.5 0
0.05 0.5 0
0 0.5 0
10 0.46 0
9.95 0.46 0
8.96 0.46 0
7.97 0.46 0
6.98 0.46 0
5.99 0.46 0
5 0.46 0
4.01 0.46 0
3.02 0.46 0
2.03 0.46 0
1.04 0.46 0
0.05 0.46 0
0 0.46 0
10 0.23 0
9.95 0.23 0
8.96 0.23 0
7.97 0.23 0
6.98 0.23 0
5.99 0.23 0
5 0.23 0
4.01 0.23 0
3.02 0.23 0
2.03 0.23 0
1.04 0.23 0
0.05 0.23 0
0 0.23 0
10 2.77556e-17 0
9.95 0 0
8.96 0 0
7.97 0 0
6.98 0 0
5.99 0 0
5 0 0
4.01 0 0
3.02 0 0
2.03 -2.77556e-17 0
1.04 -2.77556e-17 0
0.05 -2.77556e-17 0
0 -2.77556e-17 0
10 -0.23 0
9.95 -0.23 0
8.96 -0.23 0
7.97 -0.23 0
6.98 -0.23 0
5.99 -0.23 0
5 -0.23 0
4.01 -0.23 0
3.02 -0.23 0
2.03 -0.23 0
1.04 -0.23 0
0.05 -0.23 0
0 -0.23 0
10 -0.46 0
9.95 -0.46 0
8.96 -0.46 0
7.97 -0.46 0
6.98 -0.46 0
5.99 -0.46 0
5 -0.46 0
4.01 -0.46 0
3.02 -0.46 0
2.03 -0.46 0
1.04 -0.46 0
0.05 -0.46 0
0 -0.46 0
10 -0.5 0
9.95 -0.5 0
8.96 -0.5 0
7.97 -0.5 0
6.98 -0.5 0
5.99 -0.5 0
5 -0.5 0
4.01 -0.5 0
3.02 -0.5 0
2.03 -0.5 0
1.04 -0.5 0
0.05 -0.5 0
0 -0.5 0

CELLS 72 360
4 0 1 14 13
4 1 2 15 14
4 2 3 16 15
4 3 4 17 16
4 4 5 18 17
4 5 6 19 18
4 6 7 20 19
4 7 8 21 20
4 8 9 22 21
4 9 10 23 22
4 10 11 24 23
4 11 12 25 24
4 13 14 27 26
4 14 15 28 27
4 15 16 29 28
4 16 17 30 29
4 17 18 31 30
4 18 19 32 31
4 19 20 33 32
4 20 21 34 33
4 21 22 35 34
4 22 23 36 35
4 23 24 37 36
4 24 25 38 37
4 26 27 40 39
4 27 28 41 40
4 28 29 42 41
4 29 30 43 42
4 30 31 44 43
4 31 32 45 44
4 32 33 46 45
4 33 34 47 46
4 34 35 48 47
4 35 36 49 48
4 36 37 50 49
4 37 38 51 50
4 39 40 53 52
4 40 41 54 53
4 41 42 55 54
4 42 43 56 55
4 43 44 57 56
4 44 45 58 57
4 45 46 59 58
4 46 47 60 59
4 47 48 61 60
4 48 49 62 61
4 49 50 63 62
4 50 51 64 63
4 52 53 66 65
4 53 54 67 66
4 54 55 68 67
4 55 56 69 68
4 56 57 70 69
4 57 58 71 70
4 58 59 72 71
4 59 60 73 72
4 60 61 74 73
4 61 62 75 74
4 62 63 76 75
4 63 64 77 76
4 65 66 79 78
4 66 67 80 79
4 67 68 81 80
4 68 69 82 81
4 69 70 83 82
4 70 71 84 83
4 71 72 85 84
4 72 73 86 85
4 73 74 87 86
4 74 75 88 87
4 75 76 89 88
4 76 77 90 89

CELL_TYPES 72
9
9
9
9
9
9
9
9
9
9
9
9
9
9
9
9
9
9
9
9
9
9
9
9
9
9
9
9
9
9
9
9
9
9
9
9
9
9
9
9
9
9
9
9
9
9
9
9
9
9
9
9
9
9
9
9
9
9
9
9
9
9
9
9
9
9
9
9
9
9
9
9
POINT_DATA 91
SCALARS bc_flag float 1
LOOKUP_TABLE default
0
1
2
3
4
5
6
7
8
9
10
11
-1
12
13
14
15
16
17
18
19
20
21
22
23
-1
24
25
26
27
28
29
30
31
32
33
34
35
-1
36
37
38
39
40
41
42
43
44
45
46
47
-1
48
49
50
51
52
53
54
55
56
57
58
59
-1
60
61
62
63
64
65
66
67
68
69
70
71
-1
72
73
74
75
76
77
78
79
80
81
82
83
-1
VECTORS y float
0 0 0
0 0 0
0 0 0
0 0 0
0 0 0
0 0 0
0 0 0
0 0 0
0 0 0
0 0 0
0 0 0
0 0 0
0 0 0
0 0 0
0 0 0
0 0 0
0 0 0
0 0 0
0 0 0
0 0 0
0 0 0
0 0 0
0 0 0
0 0 0
0 0 0
0 0 0
0 0 0
0 0 0
0 0 0
0 0 0
0 0 0
0 0 0
0 0 0
0 0 0
0 0 0
0 0 0
0 0 0
0 0 0
0 0 0
0 0 0
0 0 0
0 0 0
0 0 0
0 0 0
0 0 0
0 0 0
0 0 0
0 0 0
0 0 0
0 0 0
0 0 0
0 0 0
0 0 0
0 0 0
0 0 0
0 0 0
0 0 0
0 0 0
0 0 0
0 0 0
0 0 0
0 0 0
0 0 0
0 0 0
0 0 0
0 0 0
0 0 0
0 0 0
0 0 0
0 0 0
0 0 0
0 0 0
0 0 0
0 0 0
0 0 0
0 0 0
0 0 0
0 0 0
0 0 0
0 0 0
0 0 0
0 0 0
0 0 0
0 0 0
0 0 0
0 0 0
0 0 0
0 0 0
0 0 0
0 0 0
0 0 0
