# vtk DataFile Version 2.0
Hex test
ASCII
DATASET UNSTRUCTURED_GRID
POINTS 2500 float
10 0.500000000 0.000000000
9.937578125 0.500000000 0.000000000
9.836625000 0.500000000 0.000000000
9.714109375 0.500000000 0.000000000
9.587000000 0.500000000 0.000000000
10.000000000 0.457408859 0.000000000
9.937578125 0.457408859 0.000000000
9.836625000 0.457408859 0.000000000
9.714109375 0.457408859 0.000000000
9.587000000 0.457408859 0.000000000
10.000000000 0.395520875 0.000000000
9.937578125 0.395520875 0.000000000
9.836625000 0.395520875 0.000000000
9.714109375 0.395520875 0.000000000
9.587000000 0.395520875 0.000000000
10.000000000 0.323164203 0.000000000
9.937578125 0.323164203 0.000000000
9.836625000 0.323164203 0.000000000
9.714109375 0.323164203 0.000000000
9.587000000 0.323164203 0.000000000
10.000000000 0.249167000 0.000000000
9.937578125 0.249167000 0.000000000
9.836625000 0.249167000 0.000000000
9.714109375 0.249167000 0.000000000
9.587000000 0.249167000 0.000000000
9.587000000 0.500000000 0.000000000
9.468921875 0.500000000 0.000000000
9.360125000 0.500000000 0.000000000
9.257515625 0.500000000 0.000000000
9.158000000 0.500000000 0.000000000
9.587000000 0.457408859 0.000000000
9.468921875 0.457408859 0.000000000
9.360125000 0.457408859 0.000000000
9.257515625 0.457408859 0.000000000
9.158000000 0.457408859 0.000000000
9.587000000 0.395520875 0.000000000
9.468921875 0.395520875 0.000000000
9.360125000 0.395520875 0.000000000
9.257515625 0.395520875 0.000000000
9.158000000 0.395520875 0.000000000
9.587000000 0.323164203 0.000000000
9.468921875 0.323164203 0.000000000
9.360125000 0.323164203 0.000000000
9.257515625 0.323164203 0.000000000
9.158000000 0.323164203 0.000000000
9.587000000 0.249167000 0.000000000
9.468921875 0.249167000 0.000000000
9.360125000 0.249167000 0.000000000
9.257515625 0.249167000 0.000000000
9.158000000 0.249167000 0.000000000
9.158000000 0.500000000 0.000000000
9.059000000 0.500000000 0.000000000
8.960000000 0.500000000 0.000000000
8.861000000 0.500000000 0.000000000
8.762000000 0.500000000 0.000000000
9.158000000 0.457408859 0.000000000
9.059000000 0.457408859 0.000000000
8.960000000 0.457408859 0.000000000
8.861000000 0.457408859 0.000000000
8.762000000 0.457408859 0.000000000
9.158000000 0.395520875 0.000000000
9.059000000 0.395520875 0.000000000
8.960000000 0.395520875 0.000000000
8.861000000 0.395520875 0.000000000
8.762000000 0.395520875 0.000000000
9.158000000 0.323164203 0.000000000
9.059000000 0.323164203 0.000000000
8.960000000 0.323164203 0.000000000
8.861000000 0.323164203 0.000000000
8.762000000 0.323164203 0.000000000
9.158000000 0.249167000 0.000000000
9.059000000 0.249167000 0.000000000
8.960000000 0.249167000 0.000000000
8.861000000 0.249167000 0.000000000
8.762000000 0.249167000 0.000000000
8.762000000 0.500000000 0.000000000
8.663000000 0.500000000 0.000000000
8.564000000 0.500000000 0.000000000
8.465000000 0.500000000 0.000000000
8.366000000 0.500000000 0.000000000
8.762000000 0.457408859 0.000000000
8.663000000 0.457408859 0.000000000
8.564000000 0.457408859 0.000000000
8.465000000 0.457408859 0.000000000
8.366000000 0.457408859 0.000000000
8.762000000 0.395520875 0.000000000
8.663000000 0.395520875 0.000000000
8.564000000 0.395520875 0.000000000
8.465000000 0.395520875 0.000000000
8.366000000 0.395520875 0.000000000
8.762000000 0.323164203 0.000000000
8.663000000 0.323164203 0.000000000
8.564000000 0.323164203 0.000000000
8.465000000 0.323164203 0.000000000
8.366000000 0.323164203 0.000000000
8.762000000 0.249167000 0.000000000
8.663000000 0.249167000 0.000000000
8.564000000 0.249167000 0.000000000
8.465000000 0.249167000 0.000000000
8.366000000 0.249167000 0.000000000
8.366000000 0.500000000 0.000000000
8.267000000 0.500000000 0.000000000
8.168000000 0.500000000 0.000000000
8.069000000 0.500000000 0.000000000
7.970000000 0.500000000 0.000000000
8.366000000 0.457408859 0.000000000
8.267000000 0.457408859 0.000000000
8.168000000 0.457408859 0.000000000
8.069000000 0.457408859 0.000000000
7.970000000 0.457408859 0.000000000
8.366000000 0.395520875 0.000000000
8.267000000 0.395520875 0.000000000
8.168000000 0.395520875 0.000000000
8.069000000 0.395520875 0.000000000
7.970000000 0.395520875 0.000000000
8.366000000 0.323164203 0.000000000
8.267000000 0.323164203 0.000000000
8.168000000 0.323164203 0.000000000
8.069000000 0.323164203 0.000000000
7.970000000 0.323164203 0.000000000
8.366000000 0.249167000 0.000000000
8.267000000 0.249167000 0.000000000
8.168000000 0.249167000 0.000000000
8.069000000 0.249167000 0.000000000
7.970000000 0.249167000 0.000000000
7.970000000 0.500000000 0.000000000
7.871000000 0.500000000 0.000000000
7.772000000 0.500000000 0.000000000
7.673000000 0.500000000 0.000000000
7.574000000 0.500000000 0.000000000
7.970000000 0.457408859 0.000000000
7.871000000 0.457408859 0.000000000
7.772000000 0.457408859 0.000000000
7.673000000 0.457408859 0.000000000
7.574000000 0.457408859 0.000000000
7.970000000 0.395520875 0.000000000
7.871000000 0.395520875 0.000000000
7.772000000 0.395520875 0.000000000
7.673000000 0.395520875 0.000000000
7.574000000 0.395520875 0.000000000
7.970000000 0.323164203 0.000000000
7.871000000 0.323164203 0.000000000
7.772000000 0.323164203 0.000000000
7.673000000 0.323164203 0.000000000
7.574000000 0.323164203 0.000000000
7.970000000 0.249167000 0.000000000
7.871000000 0.249167000 0.000000000
7.772000000 0.249167000 0.000000000
7.673000000 0.249167000 0.000000000
7.574000000 0.249167000 0.000000000
7.574000000 0.500000000 0.000000000
7.475000000 0.500000000 0.000000000
7.376000000 0.500000000 0.000000000
7.277000000 0.500000000 0.000000000
7.178000000 0.500000000 0.000000000
7.574000000 0.457408859 0.000000000
7.475000000 0.457408859 0.000000000
7.376000000 0.457408859 0.000000000
7.277000000 0.457408859 0.000000000
7.178000000 0.457408859 0.000000000
7.574000000 0.395520875 0.000000000
7.475000000 0.395520875 0.000000000
7.376000000 0.395520875 0.000000000
7.277000000 0.395520875 0.000000000
7.178000000 0.395520875 0.000000000
7.574000000 0.323164203 0.000000000
7.475000000 0.323164203 0.000000000
7.376000000 0.323164203 0.000000000
7.277000000 0.323164203 0.000000000
7.178000000 0.323164203 0.000000000
7.574000000 0.249167000 0.000000000
7.475000000 0.249167000 0.000000000
7.376000000 0.249167000 0.000000000
7.277000000 0.249167000 0.000000000
7.178000000 0.249167000 0.000000000
7.178000000 0.500000000 0.000000000
7.079000000 0.500000000 0.000000000
6.980000000 0.500000000 0.000000000
6.881000000 0.500000000 0.000000000
6.782000000 0.500000000 0.000000000
7.178000000 0.457408859 0.000000000
7.079000000 0.457408859 0.000000000
6.980000000 0.457408859 0.000000000
6.881000000 0.457408859 0.000000000
6.782000000 0.457408859 0.000000000
7.178000000 0.395520875 0.000000000
7.079000000 0.395520875 0.000000000
6.980000000 0.395520875 0.000000000
6.881000000 0.395520875 0.000000000
6.782000000 0.395520875 0.000000000
7.178000000 0.323164203 0.000000000
7.079000000 0.323164203 0.000000000
6.980000000 0.323164203 0.000000000
6.881000000 0.323164203 0.000000000
6.782000000 0.323164203 0.000000000
7.178000000 0.249167000 0.000000000
7.079000000 0.249167000 0.000000000
6.980000000 0.249167000 0.000000000
6.881000000 0.249167000 0.000000000
6.782000000 0.249167000 0.000000000
6.782000000 0.500000000 0.000000000
6.683000000 0.500000000 0.000000000
6.584000000 0.500000000 0.000000000
6.485000000 0.500000000 0.000000000
6.386000000 0.500000000 0.000000000
6.782000000 0.457408859 0.000000000
6.683000000 0.457408859 0.000000000
6.584000000 0.457408859 0.000000000
6.485000000 0.457408859 0.000000000
6.386000000 0.457408859 0.000000000
6.782000000 0.395520875 0.000000000
6.683000000 0.395520875 0.000000000
6.584000000 0.395520875 0.000000000
6.485000000 0.395520875 0.000000000
6.386000000 0.395520875 0.000000000
6.782000000 0.323164203 0.000000000
6.683000000 0.323164203 0.000000000
6.584000000 0.323164203 0.000000000
6.485000000 0.323164203 0.000000000
6.386000000 0.323164203 0.000000000
6.782000000 0.249167000 0.000000000
6.683000000 0.249167000 0.000000000
6.584000000 0.249167000 0.000000000
6.485000000 0.249167000 0.000000000
6.386000000 0.249167000 0.000000000
6.386000000 0.500000000 0.000000000
6.287000000 0.500000000 0.000000000
6.188000000 0.500000000 0.000000000
6.089000000 0.500000000 0.000000000
5.990000000 0.500000000 0.000000000
6.386000000 0.457408859 0.000000000
6.287000000 0.457408859 0.000000000
6.188000000 0.457408859 0.000000000
6.089000000 0.457408859 0.000000000
5.990000000 0.457408859 0.000000000
6.386000000 0.395520875 0.000000000
6.287000000 0.395520875 0.000000000
6.188000000 0.395520875 0.000000000
6.089000000 0.395520875 0.000000000
5.990000000 0.395520875 0.000000000
6.386000000 0.323164203 0.000000000
6.287000000 0.323164203 0.000000000
6.188000000 0.323164203 0.000000000
6.089000000 0.323164203 0.000000000
5.990000000 0.323164203 0.000000000
6.386000000 0.249167000 0.000000000
6.287000000 0.249167000 0.000000000
6.188000000 0.249167000 0.000000000
6.089000000 0.249167000 0.000000000
5.990000000 0.249167000 0.000000000
5.990000000 0.500000000 0.000000000
5.891000000 0.500000000 0.000000000
5.792000000 0.500000000 0.000000000
5.693000000 0.500000000 0.000000000
5.594000000 0.500000000 0.000000000
5.990000000 0.457408859 0.000000000
5.891000000 0.457408859 0.000000000
5.792000000 0.457408859 0.000000000
5.693000000 0.457408859 0.000000000
5.594000000 0.457408859 0.000000000
5.990000000 0.395520875 0.000000000
5.891000000 0.395520875 0.000000000
5.792000000 0.395520875 0.000000000
5.693000000 0.395520875 0.000000000
5.594000000 0.395520875 0.000000000
5.990000000 0.323164203 0.000000000
5.891000000 0.323164203 0.000000000
5.792000000 0.323164203 0.000000000
5.693000000 0.323164203 0.000000000
5.594000000 0.323164203 0.000000000
5.990000000 0.249167000 0.000000000
5.891000000 0.249167000 0.000000000
5.792000000 0.249167000 0.000000000
5.693000000 0.249167000 0.000000000
5.594000000 0.249167000 0.000000000
[...]
POINT_DATA 2500
VECTORS y float
1.000000000 0 0
0.997728452 0 0
0.981827614 0 0
0.938668198 0 0
0.854620915 0 0
1.000000000 0 0
0.997728455 0 0
0.981827635 0 0
0.938668260 0 0
0.854621051 0 0
1.000000000 0 0
0.997728468 0 0
0.981827685 0 0
0.938668375 0 0
0.854621259 0 0
1.000000000 0 0
0.997728493 0 0
0.981827753 0 0
0.938668452 0 0
0.854621262 0 0
1.000000000 0 0
0.997728534 0 0
0.981827823 0 0
0.938668396 0 0
0.854620783 0 0
0.854620915 0 0
0.723004326 0 0
0.564925136 0 0
0.408438225 0 0
0.281598476 0 0
0.854621051 0 0
0.723004355 0 0
0.564925155 0 0
0.408438243 0 0
0.281598409 0 0
0.854621259 0 0
0.723004382 0 0
0.564925157 0 0
0.408438228 0 0
0.281598237 0 0
0.854621262 0 0
0.723004363 0 0
0.564925128 0 0
0.408438171 0 0
0.281598108 0 0
0.854620783 0 0
0.723004257 0 0
0.564925055 0 0
0.408438064 0 0
0.281598170 0 0
0.281598476 0 0
0.205450279 0 0
0.173001972 0 0
0.170251713 0 0
0.183197657 0 0
0.281598409 0 0
0.205450265 0 0
0.173001977 0 0
0.170251710 0 0
0.183197629 0 0
0.281598237 0 0
0.205450201 0 0
0.173001957 0 0
0.170251684 0 0
0.183197562 0 0
0.281598108 0 0
0.205450152 0 0
0.173001947 0 0
0.170251681 0 0
0.183197540 0 0
0.281598170 0 0
0.205450181 0 0
0.173001981 0 0
0.170251745 0 0
0.183197649 0 0
0.183197657 0 0
0.200052759 0 0
0.217890811 0 0
0.236000354 0 0
0.253669930 0 0
0.183197629 0 0
0.200052765 0 0
0.217890825 0 0
0.236000356 0 0
0.253669903 0 0
0.183197562 0 0
0.200052754 0 0
0.217890825 0 0
0.236000327 0 0
0.253669812 0 0
0.183197540 0 0
0.200052760 0 0
0.217890838 0 0
0.236000327 0 0
0.253669780 0 0
0.183197649 0 0
0.200052815 0 0
0.217890892 0 0
0.236000419 0 0
0.253669932 0 0
0.253669930 0 0
0.270356125 0 0
0.286189818 0 0
0.301469882 0 0
0.316495187 0 0
0.253669903 0 0
0.270356139 0 0
0.286189841 0 0
0.301469886 0 0
0.316495148 0 0
0.253669812 0 0
0.270356121 0 0
0.286189841 0 0
0.301469853 0 0
0.316495036 0 0
0.253669780 0 0
0.270356125 0 0
0.286189857 0 0
0.301469856 0 0
0.316495000 0 0
0.253669932 0 0
0.270356203 0 0
0.286189926 0 0
0.301469967 0 0
0.316495191 0 0
0.316495187 0 0
0.331491751 0 0
0.346396931 0 0
0.361075186 0 0
0.375390974 0 0
0.316495148 0 0
0.331491762 0 0
0.346396957 0 0
0.361075192 0 0
0.375390930 0 0
0.316495036 0 0
0.331491741 0 0
0.346396958 0 0
0.361075155 0 0
0.375390797 0 0
0.316495000 0 0
0.331491749 0 0
0.346396980 0 0
0.361075160 0 0
0.375390755 0 0
0.316495191 0 0
0.331491851 0 0
0.346397067 0 0
0.361075292 0 0
0.375390981 0 0
0.375390974 0 0
0.389239582 0 0
0.402642891 0 0
0.415653565 0 0
0.428324271 0 0
0.375390930 0 0
0.389239597 0 0
0.402642922 0 0
0.415653573 0 0
0.428324219 0 0
0.375390797 0 0
0.389239570 0 0
0.402642924 0 0
0.415653532 0 0
0.428324069 0 0
0.375390755 0 0
0.389239578 0 0
0.402642948 0 0
0.415653538 0 0
0.428324021 0 0
0.375390981 0 0
0.389239700 0 0
0.402643048 0 0
0.415653688 0 0
0.428324279 0 0
0.428324271 0 0
0.440693380 0 0
0.452745848 0 0
0.464452296 0 0
0.475783348 0 0
0.428324219 0 0
0.440693395 0 0
0.452745882 0 0
0.464452306 0 0
0.475783291 0 0
0.428324069 0 0
0.440693363 0 0
0.452745885 0 0
0.464452262 0 0
0.475783124 0 0
0.428324021 0 0
0.440693373 0 0
0.452745914 0 0
0.464452270 0 0
0.475783071 0 0
0.428324279 0 0
0.440693514 0 0
0.452746027 0 0
0.464452435 0 0
0.475783358 0 0
0.475783348 0 0
0.486714564 0 0
0.497245460 0 0
0.507380456 0 0
0.517123973 0 0
0.475783291 0 0
0.486714580 0 0
0.497245498 0 0
0.507380467 0 0
0.517123912 0 0
0.475783124 0 0
0.486714544 0 0
0.497245501 0 0
0.507380421 0 0
0.517123730 0 0
0.475783071 0 0
0.486714555 0 0
0.497245532 0 0
0.507380429 0 0
0.517123673 0 0
0.475783358 0 0
0.486714712 0 0
0.497245656 0 0
0.507380608 0 0
0.517123984 0 0
0.517123973 0 0
0.526476876 0 0
0.535430376 0 0
0.543972102 0 0
0.552089681 0 0
0.517123912 0 0
0.526476892 0 0
0.535430417 0 0
0.543972115 0 0
0.552089615 0 0
0.517123730 0 0
0.526476852 0 0
0.535430420 0 0
0.543972066 0 0
0.552089421 0 0
0.517123673 0 0
0.526476864 0 0
0.535430454 0 0
0.543972075 0 0
0.552089360 0 0
0.517123984 0 0
0.526477035 0 0
0.535430587 0 0
0.543972265 0 0
0.552089693 0 0
0.552089681 0 0
0.559770707 0 0
0.567007541 0 0
0.573792486 0 0
0.580117844 0 0
0.552089615 0 0
0.559770725 0 0
0.567007585 0 0
0.573792500 0 0
0.580117775 0 0
0.552089421 0 0
0.559770681 0 0
0.567007588 0 0
0.573792449 0 0
0.580117571 0 0
0.552089360 0 0
0.559770693 0 0
0.567007624 0 0
0.573792459 0 0
0.580117506 0 0
0.552089693 0 0
0.559770877 0 0
0.567007765 0 0
0.573792657 0 0
0.580117856 0 0
0.580117844 0 0
0.585974356 0 0
0.591351672 0 0
0.596237858 0 0
0.600620985 0 0
0.580117775 0 0
0.585974374 0 0
0.591351717 0 0
0.596237874 0 0
0.600620913 0 0
0.580117571 0 0
0.585974327 0 0
0.591351720 0 0
0.596237821 0 0
0.600620702 0 0
0.580117506 0 0
0.585974339 0 0
0.591351757 0 0
0.596237832 0 0
0.600620635 0 0
0.580117856 0 0
0.585974533 0 0
0.591351904 0 0
0.596238036 0 0
0.600620996 0 0
0.600620985 0 0
0.604488115 0 0
0.607827658 0 0
0.610627005 0 0
0.612873548 0 0
0.600620913 0 0
0.604488133 0 0
0.607827704 0 0
0.610627021 0 0
0.612873475 0 0
0.600620702 0 0
0.604488083 0 0
0.607827707 0 0
0.610626968 0 0
0.612873259 0 0
0.600620635 0 0
0.604488095 0 0
0.607827745 0 0
0.610626979 0 0
0.612873190 0 0
0.600620996 0 0
0.604488296 0 0
0.607827895 0 0
0.610627186 0 0
0.612873559 0 0
0.612873548 0 0
0.614553798 0 0
0.615656206 0 0
0.616168338 0 0
0.616077758 0 0
0.612873475 0 0
0.614553815 0 0
0.615656253 0 0
0.616168355 0 0
0.616077685 0 0
0.612873259 0 0
0.614553763 0 0
0.615656256 0 0
0.616168302 0 0
0.616077467 0 0
0.612873190 0 0
0.614553774 0 0
0.615656293 0 0
0.616168313 0 0
0.616077398 0 0
0.612873559 0 0
0.614553980 0 0
0.615656445 0 0
0.616168520 0 0
0.616077767 0 0
0.616077758 0 0
0.615370630 0 0
0.614033029 0 0
0.612049629 0 0
0.609405105 0 0
0.616077685 0 0
0.615370647 0 0
0.614033076 0 0
0.612049646 0 0
0.609405033 0 0
0.616077467 0 0
0.615370594 0 0
0.614033078 0 0
0.612049594 0 0
0.609404817 0 0
0.616077398 0 0
0.615370604 0 0
0.614033115 0 0
0.612049605 0 0
0.609404747 0 0
0.616077767 0 0
0.615370811 0 0
0.614033266 0 0
0.612049808 0 0
0.609405112 0 0
0.609405105 0 0
0.606084690 0 0
0.602081311 0 0
0.597388461 0 0
0.591999634 0 0
0.609405033 0 0
0.606084705 0 0
0.602081356 0 0
0.597388478 0 0
0.591999563 0 0
0.609404817 0 0
0.606084651 0 0
0.602081358 0 0
0.597388428 0 0
0.591999353 0 0
0.609404747 0 0
0.606084661 0 0
0.602081394 0 0
0.597388438 0 0
0.591999285 0 0
0.609405112 0 0
0.606084865 0 0
0.602081541 0 0
0.597388634 0 0
0.591999639 0 0
0.591999634 0 0
0.585904904 0 0
0.579086003 0 0
0.571521259 0 0
0.563189000 0 0
0.591999563 0 0
0.585904919 0 0
0.579086047 0 0
0.571521276 0 0
0.563188933 0 0
0.591999353 0 0
0.585904865 0 0
0.579086049 0 0
0.571521230 0 0
0.563188733 0 0
0.591999285 0 0
0.585904872 0 0
0.579086082 0 0
0.571521238 0 0
0.563188667 0 0
0.591999639 0 0
0.585905072 0 0
0.579086222 0 0
0.571521422 0 0
0.563189003 0 0
0.563189000 0 0
0.554074376 0 0
0.544194895 0 0
0.533574913 0 0
0.522238786 0 0
0.563188933 0 0
0.554074388 0 0
0.544194936 0 0
0.533574930 0 0
0.522238723 0 0
0.563188733 0 0
0.554074335 0 0
0.544194937 0 0
0.533574887 0 0
0.522238537 0 0
0.563188667 0 0
0.554074341 0 0
0.544194968 0 0
0.533574896 0 0
0.522238475 0 0
0.563189003 0 0
0.554074531 0 0
0.544195099 0 0
0.533575064 0 0
0.522238786 0 0
0.522238786 0 0
0.510194872 0 0
0.497392286 0 0
0.483764179 0 0
0.469243705 0 0
0.522238723 0 0
0.510194883 0 0
0.497392324 0 0
0.483764197 0 0
0.469243649 0 0
0.522238537 0 0
0.510194832 0 0
0.497392324 0 0
0.483764159 0 0
0.469243481 0 0
0.522238475 0 0
0.510194836 0 0
0.497392350 0 0
0.483764164 0 0
0.469243424 0 0
0.522238786 0 0
0.510195012 0 0
0.497392469 0 0
0.483764313 0 0
0.469243702 0 0
0.469243705 0 0
0.453802660 0 0
0.437571686 0 0
0.420720116 0 0
0.403417280 0 0
0.469243649 0 0
0.453802668 0 0
0.437571718 0 0
0.420720129 0 0
0.403417229 0 0
0.469243481 0 0
0.453802619 0 0
0.437571717 0 0
0.420720098 0 0
0.403417084 0 0
0.469243424 0 0
0.453802621 0 0
0.437571741 0 0
0.420720104 0 0
0.403417035 0 0
0.469243702 0 0
0.453802781 0 0
0.437571845 0 0
0.420720230 0 0
0.403417273 0 0
0.403417280 0 0
0.385745073 0 0
0.367439361 0 0
0.348148628 0 0
0.327521355 0 0
0.403417229 0 0
0.385745078 0 0
0.367439390 0 0
0.348148645 0 0
0.327521319 0 0
0.403417084 0 0
0.385745033 0 0
0.367439387 0 0
0.348148619 0 0
0.327521199 0 0
0.403417035 0 0
0.385745033 0 0
0.367439403 0 0
0.348148619 0 0
0.327521155 0 0
0.403417273 0 0
0.385745170 0 0
0.367439488 0 0
0.348148717 0 0
0.327521346 0 0
0.327521355 0 0
0.305414930 0 0
0.282525356 0 0
0.259757603 0 0
0.238016644 0 0
0.327521319 0 0
0.305414933 0 0
0.282525374 0 0
0.259757610 0 0
0.238016608 0 0
0.327521199 0 0
0.305414892 0 0
0.282525371 0 0
0.259757594 0 0
0.238016518 0 0
0.327521155 0 0
0.305414889 0 0
0.282525384 0 0
0.259757598 0 0
0.238016487 0 0
0.327521346 0 0
0.305415003 0 0
0.282525450 0 0
0.259757665 0 0
0.238016625 0 0
0.238016644 0 0
0.225537304 0 0
0.259876186 0 0
0.385919812 0 0
0.648554702 0 0
0.238016608 0 0
0.225537297 0 0
0.259876178 0 0
0.385919750 0 0
0.648554510 0 0
0.238016518 0 0
0.225537258 0 0
0.259876124 0 0
0.385919575 0 0
0.648554070 0 0
0.238016487 0 0
0.225537248 0 0
0.259876085 0 0
0.385919431 0 0
0.648553717 0 0
0.238016625 0 0
0.225537328 0 0
0.259876125 0 0
0.385919462 0 0
0.648553787 0 0
0.648554702 0 0
1.070238889 0 0
1.583728932 0 0
2.099351866 0 0
2.527434723 0 0
0.648554510 0 0
1.070238938 0 0
1.583728973 0 0
2.099351934 0 0
2.527435137 0 0
0.648554070 0 0
1.070238936 0 0
1.583728988 0 0
2.099352010 0 0
2.527435787 0 0
0.648553717 0 0
1.070238785 0 0
1.583728910 0 0
2.099351965 0 0
2.527435820 0 0
0.648553787 0 0
1.070238385 0 0
1.583728675 0 0
2.099351670 0 0
2.527434382 0 0
2.527434723 0 0
2.800636524 0 0
2.940929340 0 0
2.992616168 0 0
3.000000000 0 0
2.527435137 0 0
2.800636710 0 0
2.940929403 0 0
2.992616178 0 0
3.000000000 0 0
2.527435787 0 0
2.800637068 0 0
2.940929558 0 0
2.992616216 0 0
3.000000000 0 0
2.527435820 0 0
2.800637307 0 0
2.940929762 0 0
2.992616291 0 0
3.000000000 0 0
2.527434382 0 0
2.800637139 0 0
2.940929973 0 0
2.992616415 0 0
3.000000000 0 0
1.000000000 0 0
0.997728534 0 0
0.981827823 0 0
0.938668396 0 0
0.854620783 0 0
1.000000016 0 0
0.997728500 0 0
0.981827726 0 0
0.938668347 0 0
0.854621021 0 0
1.000000125 0 0
0.997728558 0 0
0.981827703 0 0
0.938668328 0 0
0.854621200 0 0
1.000000422 0 0
0.997728769 0 0
0.981827763 0 0
0.938668330 0 0
0.854621398 0 0
1.000001000 0 0
0.997729195 0 0
0.981827912 0 0
0.938668347 0 0
0.854621696 0 0
0.854620783 0 0
0.723004257 0 0
0.564925055 0 0
0.408438064 0 0
0.281598170 0 0
0.854621021 0 0
0.723004122 0 0
0.564924866 0 0
0.408437948 0 0
0.281598060 0 0
0.854621200 0 0
0.723004088 0 0
0.564924800 0 0
0.408437919 0 0
0.281598027 0 0
0.854621398 0 0
0.723004148 0 0
0.564924826 0 0
0.408437949 0 0
0.281598034 0 0
0.854621696 0 0
0.723004294 0 0
0.564924915 0 0
0.408438013 0 0
0.281598045 0 0
0.281598170 0 0
0.205450181 0 0
0.173001981 0 0
0.170251745 0 0
0.183197649 0 0
0.281598060 0 0
0.205450115 0 0
0.173001926 0 0
0.170251681 0 0
0.183197567 0 0
0.281598027 0 0
0.205450107 0 0
0.173001923 0 0
0.170251672 0 0
0.183197546 0 0
0.281598034 0 0
0.205450128 0 0
0.173001947 0 0
0.170251690 0 0
0.183197556 0 0
0.281598045 0 0
0.205450151 0 0
0.173001972 0 0
0.170251709 0 0
0.183197566 0 0
0.183197649 0 0
0.200052815 0 0
0.217890892 0 0
0.236000419 0 0
0.253669932 0 0
0.183197567 0 0
0.200052750 0 0
0.217890822 0 0
0.236000328 0 0
0.253669816 0 0
0.183197546 0 0
0.200052742 0 0
0.217890815 0 0
0.236000314 0 0
0.253669790 0 0
0.183197556 0 0
0.200052765 0 0
0.217890843 0 0
0.236000339 0 0
0.253669808 0 0
0.183197566 0 0
0.200052792 0 0
0.217890875 0 0
0.236000367 0 0
0.253669824 0 0
0.253669932 0 0
0.270356203 0 0
0.286189926 0 0
0.301469967 0 0
0.316495191 0 0
0.253669816 0 0
0.270356112 0 0
0.286189834 0 0
0.301469855 0 0
0.316495047 0 0
0.253669790 0 0
0.270356104 0 0
0.286189827 0 0
0.301469837 0 0
0.316495010 0 0
0.253669808 0 0
0.270356139 0 0
0.286189866 0 0
0.301469868 0 0
0.316495027 0 0
0.253669824 0 0
0.270356176 0 0
0.286189909 0 0
0.301469904 0 0
0.316495045 0 0
0.316495191 0 0
0.331491851 0 0
0.346397067 0 0
0.361075292 0 0
0.375390981 0 0
0.316495047 0 0
0.331491737 0 0
0.346396954 0 0
0.361075158 0 0
0.375390809 0 0
0.316495010 0 0
0.331491722 0 0
0.346396943 0 0
0.361075137 0 0
0.375390767 0 0
0.316495027 0 0
0.331491759 0 0
0.346396986 0 0
0.361075174 0 0
0.375390789 0 0
0.316495045 0 0
0.331491802 0 0
0.346397037 0 0
0.361075217 0 0
0.375390810 0 0
0.375390981 0 0
0.389239700 0 0
0.402643048 0 0
0.415653688 0 0
0.428324279 0 0
0.375390809 0 0
0.389239565 0 0
0.402642918 0 0
0.415653535 0 0
0.428324084 0 0
0.375390767 0 0
0.389239548 0 0
0.402642906 0 0
0.415653511 0 0
0.428324034 0 0
0.375390789 0 0
0.389239593 0 0
0.402642957 0 0
0.415653554 0 0
0.428324058 0 0
0.375390810 0 0
0.389239644 0 0
0.402643017 0 0
0.415653604 0 0
0.428324082 0 0
0.428324279 0 0
0.440693514 0 0
0.452746027 0 0
0.464452435 0 0
0.475783358 0 0
0.428324084 0 0
0.440693361 0 0
0.452745880 0 0
0.464452265 0 0
0.475783141 0 0
0.428324034 0 0
0.440693340 0 0
0.452745865 0 0
0.464452239 0 0
0.475783086 0 0
0.428324058 0 0
0.440693388 0 0
0.452745922 0 0
0.464452287 0 0
0.475783113 0 0
0.428324082 0 0
0.440693445 0 0
0.452745988 0 0
0.464452343 0 0
0.475783140 0 0
0.475783358 0 0
0.486714712 0 0
0.497245656 0 0
0.507380608 0 0
0.517123984 0 0
0.475783141 0 0
0.486714542 0 0
0.497245495 0 0
0.507380423 0 0
0.517123748 0 0
0.475783086 0 0
0.486714518 0 0
0.497245479 0 0
0.507380395 0 0
0.517123688 0 0
0.475783113 0 0
0.486714572 0 0
0.497245542 0 0
0.507380448 0 0
0.517123717 0 0
0.475783140 0 0
0.486714634 0 0
0.497245615 0 0
0.507380510 0 0
0.517123746 0 0
0.517123984 0 0
0.526477035 0 0
0.535430587 0 0
0.543972265 0 0
0.552089693 0 0
0.517123748 0 0
0.526476850 0 0
0.535430414 0 0
0.543972068 0 0
0.552089440 0 0
0.517123688 0 0
0.526476824 0 0
0.535430397 0 0
0.543972037 0 0
0.552089377 0 0
0.517123717 0 0
0.526476882 0 0
0.535430463 0 0
0.543972095 0 0
0.552089407 0 0
0.517123746 0 0
0.526476948 0 0
0.535430542 0 0
0.543972161 0 0
0.552089438 0 0
0.552089693 0 0
0.559770877 0 0
0.567007765 0 0
0.573792657 0 0
0.580117856 0 0
0.552089440 0 0
0.559770679 0 0
0.567007581 0 0
0.573792450 0 0
0.580117590 0 0
0.552089377 0 0
0.559770651 0 0
0.567007563 0 0
0.573792418 0 0
0.580117523 0 0
0.552089407 0 0
0.559770712 0 0
0.567007633 0 0
0.573792479 0 0
0.580117555 0 0
0.552089438 0 0
0.559770782 0 0
0.567007716 0 0
0.573792549 0 0
0.580117588 0 0
0.580117856 0 0
0.585974533 0 0
0.591351904 0 0
0.596238036 0 0
0.600620996 0 0
0.580117590 0 0
0.585974324 0 0
0.591351712 0 0
0.596237821 0 0
0.600620721 0 0
0.580117523 0 0
0.585974294 0 0
0.591351692 0 0
0.596237788 0 0
0.600620651 0 0
0.580117555 0 0
0.585974358 0 0
0.591351766 0 0
0.596237851 0 0
0.600620684 0 0
0.580117588 0 0
0.585974431 0 0
0.591351853 0 0
0.596237924 0 0
0.600620717 0 0
0.600620996 0 0
0.604488296 0 0
0.607827895 0 0
0.610627186 0 0
0.612873559 0 0
0.600620721 0 0
0.604488080 0 0
0.607827698 0 0
0.610626966 0 0
0.612873277 0 0
0.600620651 0 0
0.604488048 0 0
0.607827677 0 0
0.610626932 0 0
0.612873205 0 0
0.600620684 0 0
0.604488113 0 0
0.607827753 0 0
0.610626997 0 0
0.612873239 0 0
0.600620717 0 0
0.604488188 0 0
0.607827842 0 0
0.610627072 0 0
0.612873273 0 0
0.612873559 0 0
0.614553980 0 0
0.615656445 0 0
0.616168520 0 0
0.616077767 0 0
0.612873277 0 0
0.614553759 0 0
0.615656244 0 0
0.616168298 0 0
0.616077484 0 0
0.612873205 0 0
0.614553726 0 0
0.615656223 0 0
0.616168263 0 0
0.616077411 0 0
0.612873239 0 0
0.614553791 0 0
0.615656299 0 0
0.616168329 0 0
0.616077444 0 0
0.612873273 0 0
0.614553867 0 0
0.615656389 0 0
0.616168405 0 0
0.616077479 0 0
0.616077767 0 0
0.615370811 0 0
0.614033266 0 0
0.612049808 0 0
0.609405112 0 0
0.616077484 0 0
0.615370588 0 0
0.614033064 0 0
0.612049587 0 0
0.609404831 0 0
0.616077411 0 0
0.615370554 0 0
0.614033043 0 0
0.612049553 0 0
0.609404759 0 0
0.616077444 0 0
0.615370619 0 0
0.614033119 0 0
0.612049618 0 0
0.609404791 0 0
0.616077479 0 0
0.615370694 0 0
0.614033208 0 0
0.612049694 0 0
0.609404825 0 0
0.609405112 0 0
0.606084865 0 0
0.602081541 0 0
0.597388634 0 0
0.591999639 0 0
0.609404831 0 0
0.606084645 0 0
0.602081343 0 0
0.597388419 0 0
0.591999365 0 0
0.609404759 0 0
0.606084610 0 0
0.602081321 0 0
0.597388385 0 0
0.591999293 0 0
0.609404791 0 0
0.606084673 0 0
0.602081395 0 0
0.597388448 0 0
0.591999325 0 0
0.609404825 0 0
0.606084747 0 0
0.602081483 0 0
0.597388523 0 0
0.591999357 0 0
0.591999639 0 0
0.585905072 0 0
0.579086222 0 0
0.571521422 0 0
0.563189003 0 0
0.591999365 0 0
0.585904857 0 0
0.579086031 0 0
0.571521217 0 0
0.563188741 0 0
0.591999293 0 0
0.585904822 0 0
0.579086010 0 0
0.571521185 0 0
0.563188673 0 0
0.591999325 0 0
0.585904882 0 0
0.579086081 0 0
0.571521246 0 0
0.563188703 0 0
0.591999357 0 0
0.585904953 0 0
0.579086165 0 0
0.571521317 0 0
0.563188734 0 0
0.563189003 0 0
0.554074531 0 0
0.544195099 0 0
0.533575064 0 0
0.522238786 0 0
0.563188741 0 0
0.554074326 0 0
0.544194919 0 0
0.533574873 0 0
0.522238543 0 0
0.563188673 0 0
0.554074292 0 0
0.544194898 0 0
0.533574843 0 0
0.522238479 0 0
0.563188703 0 0
0.554074348 0 0
0.544194963 0 0
0.533574899 0 0
0.522238505 0 0
0.563188734 0 0
0.554074415 0 0
0.544195042 0 0
0.533574966 0 0
0.522238534 0 0
0.522238786 0 0
0.510195012 0 0
0.497392469 0 0
0.483764313 0 0
0.469243702 0 0
0.522238543 0 0
0.510194821 0 0
0.497392304 0 0
0.483764140 0 0
0.469243483 0 0
0.522238479 0 0
0.510194789 0 0
0.497392285 0 0
0.483764115 0 0
0.469243426 0 0
0.522238505 0 0
0.510194840 0 0
0.497392345 0 0
0.483764167 0 0
0.469243451 0 0
0.522238534 0 0
0.510194901 0 0
0.497392418 0 0
0.483764229 0 0
0.469243477 0 0
0.469243702 0 0
0.453802781 0 0
0.437571845 0 0
0.420720230 0 0
0.403417273 0 0
0.469243483 0 0
0.453802609 0 0
0.437571699 0 0
0.420720081 0 0
0.403417084 0 0
0.469243426 0 0
0.453802579 0 0
0.437571681 0 0
0.420720058 0 0
0.403417034 0 0
0.469243451 0 0
0.453802623 0 0
0.437571733 0 0
0.420720102 0 0
0.403417054 0 0
0.469243477 0 0
0.453802677 0 0
0.437571796 0 0
0.420720155 0 0
0.403417076 0 0
0.403417273 0 0
0.385745170 0 0
0.367439488 0 0
0.348148717 0 0
0.327521346 0 0
0.403417084 0 0
0.385745022 0 0
0.367439365 0 0
0.348148595 0 0
0.327521193 0 0
0.403417034 0 0
0.385744996 0 0
0.367439353 0 0
0.348148581 0 0
0.327521155 0 0
0.403417054 0 0
0.385745034 0 0
0.367439400 0 0
0.348148623 0 0
0.327521176 0 0
0.403417076 0 0
0.385745079 0 0
0.367439455 0 0
0.348148671 0 0
0.327521196 0 0
0.327521346 0 0
0.305415003 0 0
0.282525450 0 0
0.259757665 0 0
0.238016625 0 0
0.327521193 0 0
0.305414883 0 0
0.282525356 0 0
0.259757578 0 0
0.238016515 0 0
0.327521155 0 0
0.305414861 0 0
0.282525344 0 0
0.259757565 0 0
0.238016486 0 0
0.327521176 0 0
0.305414892 0 0
0.282525378 0 0
0.259757594 0 0
0.238016497 0 0
0.327521196 0 0
0.305414927 0 0
0.282525419 0 0
0.259757628 0 0
0.238016509 0 0
0.238016625 0 0
0.225537328 0 0
0.259876125 0 0
0.385919462 0 0
0.648553787 0 0
0.238016515 0 0
0.225537241 0 0
0.259876039 0 0
0.385919333 0 0
0.648553544 0 0
0.238016486 0 0
0.225537225 0 0
0.259876027 0 0
0.385919299 0 0
0.648553449 0 0
0.238016497 0 0
0.225537247 0 0
0.259876055 0 0
0.385919318 0 0
0.648553439 0 0
0.238016509 0 0
0.225537273 0 0
0.259876086 0 0
0.385919346 0 0
0.648553449 0 0
0.648553787 0 0
1.070238385 0 0
1.583728675 0 0
2.099351670 0 0
2.527434382 0 0
0.648553544 0 0
1.070238103 0 0
1.583728137 0 0
2.099351263 0 0
2.527435097 0 0
0.648553449 0 0
1.070238013 0 0
1.583727924 0 0
2.099351142 0 0
2.527435623 0 0
0.648553439 0 0
1.070238073 0 0
1.583727971 0 0
2.099351295 0 0
2.527436208 0 0
0.648553449 0 0
1.070238243 0 0
1.583728213 0 0
2.099351713 0 0
2.527437097 0 0
2.527434382 0 0
2.800637139 0 0
2.940929973 0 0
2.992616415 0 0
3.000000000 0 0
2.527435097 0 0
2.800636994 0 0
2.940929681 0 0
2.992616314 0 0
3.000000047 0 0
2.527435623 0 0
2.800636931 0 0
2.940929612 0 0
2.992616487 0 0
3.000000375 0 0
2.527436208 0 0
2.800636933 0 0
2.940929790 0 0
2.992617120 0 0
3.000001266 0 0
2.527437097 0 0
2.800636982 0 0
2.940930237 0 0