# vtk DataFile Version 2.0
Hex test
ASCII
DATASET UNSTRUCTURED_GRID
POINTS 1600 float
10 0.500000000 0.000000000
9.907370370 0.500000000 0.000000000
9.756296296 0.500000000 0.000000000
9.587000000 0.500000000 0.000000000
10.000000000 0.438487667 0.000000000
9.907370370 0.438487667 0.000000000
9.756296296 0.438487667 0.000000000
9.587000000 0.438487667 0.000000000
10.000000000 0.347901333 0.000000000
9.907370370 0.347901333 0.000000000
9.756296296 0.347901333 0.000000000
9.587000000 0.347901333 0.000000000
10.000000000 0.249167000 0.000000000
9.907370370 0.249167000 0.000000000
9.756296296 0.249167000 0.000000000
9.587000000 0.249167000 0.000000000
9.587000000 0.500000000 0.000000000
9.431777778 0.500000000 0.000000000
9.291222222 0.500000000 0.000000000
9.158000000 0.500000000 0.000000000
9.587000000 0.438487667 0.000000000
9.431777778 0.438487667 0.000000000
9.291222222 0.438487667 0.000000000
9.158000000 0.438487667 0.000000000
9.587000000 0.347901333 0.000000000
9.431777778 0.347901333 0.000000000
9.291222222 0.347901333 0.000000000
9.158000000 0.347901333 0.000000000
9.587000000 0.249167000 0.000000000
9.431777778 0.249167000 0.000000000
9.291222222 0.249167000 0.000000000
9.158000000 0.249167000 0.000000000
9.158000000 0.500000000 0.000000000
9.026000000 0.500000000 0.000000000
8.894000000 0.500000000 0.000000000
8.762000000 0.500000000 0.000000000
9.158000000 0.438487667 0.000000000
9.026000000 0.438487667 0.000000000
8.894000000 0.438487667 0.000000000
8.762000000 0.438487667 0.000000000
9.158000000 0.347901333 0.000000000
9.026000000 0.347901333 0.000000000
8.894000000 0.347901333 0.000000000
8.762000000 0.347901333 0.000000000
9.158000000 0.249167000 0.000000000
9.026000000 0.249167000 0.000000000
8.894000000 0.249167000 0.000000000
8.762000000 0.249167000 0.000000000
8.762000000 0.500000000 0.000000000
8.630000000 0.500000000 0.000000000
8.498000000 0.500000000 0.000000000
8.366000000 0.500000000 0.000000000
8.762000000 0.438487667 0.000000000
8.630000000 0.438487667 0.000000000
8.498000000 0.438487667 0.000000000
8.366000000 0.438487667 0.000000000
8.762000000 0.347901333 0.000000000
8.630000000 0.347901333 0.000000000
8.498000000 0.347901333 0.000000000
8.366000000 0.347901333 0.000000000
8.762000000 0.249167000 0.000000000
8.630000000 0.249167000 0.000000000
8.498000000 0.249167000 0.000000000
8.366000000 0.249167000 0.000000000
8.366000000 0.500000000 0.000000000
8.234000000 0.500000000 0.000000000
8.102000000 0.500000000 0.000000000
7.970000000 0.500000000 0.000000000
8.366000000 0.438487667 0.000000000
8.234000000 0.438487667 0.000000000
8.102000000 0.438487667 0.000000000
7.970000000 0.438487667 0.000000000
8.366000000 0.347901333 0.000000000
8.234000000 0.347901333 0.000000000
8.102000000 0.347901333 0.000000000
7.970000000 0.347901333 0.000000000
8.366000000 0.249167000 0.000000000
8.234000000 0.249167000 0.000000000
8.102000000 0.249167000 0.000000000
7.970000000 0.249167000 0.000000000
7.970000000 0.500000000 0.000000000
7.838000000 0.500000000 0.000000000
7.706000000 0.500000000 0.000000000
7.574000000 0.500000000 0.000000000
7.970000000 0.438487667 0.000000000
7.838000000 0.438487667 0.000000000
7.706000000 0.438487667 0.000000000
7.574000000 0.438487667 0.000000000
7.970000000 0.347901333 0.000000000
7.838000000 0.347901333 0.000000000
7.706000000 0.347901333 0.000000000
7.574000000 0.347901333 0.000000000
7.970000000 0.249167000 0.000000000
7.838000000 0.249167000 0.000000000
7.706000000 0.249167000 0.000000000
7.574000000 0.249167000 0.000000000
7.574000000 0.500000000 0.000000000
7.442000000 0.500000000 0.000000000
7.310000000 0.500000000 0.000000000
7.178000000 0.500000000 0.000000000
7.574000000 0.438487667 0.000000000
7.442000000 0.438487667 0.000000000
7.310000000 0.438487667 0.000000000
7.178000000 0.438487667 0.000000000
7.574000000 0.347901333 0.000000000
7.442000000 0.347901333 0.000000000
7.310000000 0.347901333 0.000000000
7.178000000 0.347901333 0.000000000
7.574000000 0.249167000 0.000000000
7.442000000 0.249167000 0.000000000
7.310000000 0.249167000 0.000000000
7.178000000 0.249167000 0.000000000
7.178000000 0.500000000 0.000000000
7.046000000 0.500000000 0.000000000
6.914000000 0.500000000 0.000000000
6.782000000 0.500000000 0.000000000
7.178000000 0.438487667 0.000000000
7.046000000 0.438487667 0.000000000
6.914000000 0.438487667 0.000000000
6.782000000 0.438487667 0.000000000
7.178000000 0.347901333 0.000000000
7.046000000 0.347901333 0.000000000
6.914000000 0.347901333 0.000000000
6.782000000 0.347901333 0.000000000
7.178000000 0.249167000 0.000000000
7.046000000 0.249167000 0.000000000
6.914000000 0.249167000 0.000000000
6.782000000 0.249167000 0.000000000
6.782000000 0.500000000 0.000000000
6.650000000 0.500000000 0.000000000
6.518000000 0.500000000 0.000000000
6.386000000 0.500000000 0.000000000
6.782000000 0.438487667 0.000000000
6.650000000 0.438487667 0.000000000
6.518000000 0.438487667 0.000000000
6.386000000 0.438487667 0.000000000
6.782000000 0.347901333 0.000000000
6.650000000 0.347901333 0.000000000
6.518000000 0.347901333 0.000000000
6.386000000 0.347901333 0.000000000
6.782000000 0.249167000 0.000000000
6.650000000 0.249167000 0.000000000
6.518000000 0.249167000 0.000000000
6.386000000 0.249167000 0.000000000
6.386000000 0.500000000 0.000000000
6.254000000 0.500000000 0.000000000
6.122000000 0.500000000 0.000000000
5.990000000 0.500000000 0.000000000
6.386000000 0.438487667 0.000000000
6.254000000 0.438487667 0.000000000
6.122000000 0.438487667 0.000000000
5.990000000 0.438487667 0.000000000
6.386000000 0.347901333 0.000000000
6.254000000 0.347901333 0.000000000
6.122000000 0.347901333 0.000000000
5.990000000 0.347901333 0.000000000
6.386000000 0.249167000 0.000000000
6.254000000 0.249167000 0.000000000
6.122000000 0.249167000 0.000000000
5.990000000 0.249167000 0.000000000
5.990000000 0.500000000 0.000000000
5.858000000 0.500000000 0.000000000
5.726000000 0.500000000 0.000000000
5.594000000 0.500000000 0.000000000
5.990000000 0.438487667 0.000000000
5.858000000 0.438487667 0.000000000
5.726000000 0.438487667 0.000000000
5.594000000 0.438487667 0.000000000
5.990000000 0.347901333 0.000000000
5.858000000 0.347901333 0.000000000
5.726000000 0.347901333 0.000000000
5.594000000 0.347901333 0.000000000
5.990000000 0.249167000 0.000000000
5.858000000 0.249167000 0.000000000
5.726000000 0.249167000 0.000000000
5.594000000 0.249167000 0.000000000
5.594000000 0.500000000 0.000000000
5.462000000 0.500000000 0.000000000
5.330000000 0.500000000 0.000000000
5.198000000 0.500000000 0.000000000
5.594000000 0.438487667 0.000000000
5.462000000 0.438487667 0.000000000
5.330000000 0.438487667 0.000000000
5.198000000 0.438487667 0.000000000
5.594000000 0.347901333 0.000000000
5.462000000 0.347901333 0.000000000
5.330000000 0.347901333 0.000000000
5.198000000 0.347901333 0.000000000
5.594000000 0.249167000 0.000000000
5.462000000 0.249167000 0.000000000
5.330000000 0.249167000 0.000000000
5.198000000 0.249167000 0.000000000
5.198000000 0.500000000 0.000000000
5.066000000 0.500000000 0.000000000
4.934000000 0.500000000 0.000000000
4.802000000 0.500000000 0.000000000
5.198000000 0.438487667 0.000000000
5.066000000 0.438487667 0.000000000
4.934000000 0.438487667 0.000000000
4.802000000 0.438487667 0.000000000
5.198000000 0.347901333 0.000000000
5.066000000 0.347901333 0.000000000
4.934000000 0.347901333 0.000000000
4.802000000 0.347901333 0.000000000
5.198000000 0.249167000 0.000000000
5.066000000 0.249167000 0.000000000
4.934000000 0.249167000 0.000000000
4.802000000 0.249167000 0.000000000
4.802000000 0.500000000 0.000000000
4.670000000 0.500000000 0.000000000
4.538000000 0.500000000 0.000000000
4.406000000 0.500000000 0.000000000
4.802000000 0.438487667 0.000000000
4.670000000 0.438487667 0.000000000
4.538000000 0.438487667 0.000000000
4.406000000 0.438487667 0.000000000
4.802000000 0.347901333 0.000000000
4.670000000 0.347901333 0.000000000
4.538000000 0.347901333 0.000000000
4.406000000 0.347901333 0.000000000
4.802000000 0.249167000 0.000000000
4.670000000 0.249167000 0.000000000
4.538000000 0.249167000 0.000000000
4.406000000 0.249167000 0.000000000
4.406000000 0.500000000 0.000000000
4.274000000 0.500000000 0.000000000
4.142000000 0.500000000 0.000000000
4.010000000 0.500000000 0.000000000
4.406000000 0.438487667 0.000000000
4.274000000 0.438487667 0.000000000
4.142000000 0.438487667 0.000000000
4.010000000 0.438487667 0.000000000
4.406000000 0.347901333 0.000000000
4.274000000 0.347901333 0.000000000
4.142000000 0.347901333 0.000000000
4.010000000 0.347901333 0.000000000
4.406000000 0.249167000 0.000000000
4.274000000 0.249167000 0.000000000
4.142000000 0.249167000 0.000000000
4.010000000 0.249167000 0.000000000
4.010000000 0.500000000 0.000000000
3.878000000 0.500000000 0.000000000
3.746000000 0.500000000 0.000000000
3.614000000 0.500000000 0.000000000
4.010000000 0.438487667 0.000000000
3.878000000 0.438487667 0.000000000
3.746000000 0.438487667 0.000000000
3.614000000 0.438487667 0.000000000
4.010000000 0.347901333 0.000000000
3.878000000 0.347901333 0.000000000
3.746000000 0.347901333 0.000000000
3.614000000 0.347901333 0.000000000
4.010000000 0.249167000 0.000000000
3.878000000 0.249167000 0.000000000
3.746000000 0.249167000 0.000000000
3.614000000 0.249167000 0.000000000
3.614000000 0.500000000 0.000000000
3.482000000 0.500000000 0.000000000
3.350000000 0.500000000 0.000000000
3.218000000 0.500000000 0.000000000
3.614000000 0.438487667 0.000000000
3.482000000 0.438487667 0.000000000
3.350000000 0.438487667 0.000000000
3.218000000 0.438487667 0.000000000
3.614000000 0.347901333 0.000000000
3.482000000 0.347901333 0.000000000
3.350000000 0.347901333 0.000000000
3.218000000 0.347901333 0.000000000
3.614000000 0.249167000 0.000000000
3.482000000 0.249167000 0.000000000
3.350000000 0.249167000 0.000000000
3.218000000 0.249167000 0.000000000
3.218000000 0.500000000 0.000000000
3.086000000 0.500000000 0.000000000
2.954000000 0.500000000 0.000000000
[...]
POINT_DATA 1600
VECTORS y float
1.000000000 0 0
0.903555022 0 0
0.841751481 0 0
0.800642070 0 0
1.000000000 0 0
0.903555030 0 0
0.841751475 0 0
0.800642105 0 0
1.000000000 0 0
0.903555055 0 0
0.841751561 0 0
0.800642194 0 0
1.000000000 0 0
0.903555097 0 0
0.841751605 0 0
0.800641829 0 0
0.800642070 0 0
0.767964039 0 0
0.738192527 0 0
0.707487282 0 0
0.800642105 0 0
0.767964039 0 0
0.738192521 0 0
0.707487133 0 0
0.800642194 0 0
0.767964119 0 0
0.738192533 0 0
0.707486895 0 0
0.800641829 0 0
0.767964110 0 0
0.738192733 0 0
0.707487362 0 0
0.707487282 0 0
0.673177062 0 0
0.637275230 0 0
0.602964290 0 0
0.707487133 0 0
0.673177116 0 0
0.637275279 0 0
0.602964135 0 0
0.707486895 0 0
0.673177118 0 0
0.637275287 0 0
0.602963908 0 0
0.707487362 0 0
0.673177374 0 0
0.637275484 0 0
0.602964277 0 0
0.602964290 0 0
0.572606569 0 0
0.545291357 0 0
0.519287896 0 0
0.602964135 0 0
0.572606573 0 0
0.545291385 0 0
0.519287784 0 0
0.602963908 0 0
0.572606555 0 0
0.545291389 0 0
0.519287605 0 0
0.602964277 0 0
0.572606749 0 0
0.545291562 0 0
0.519287943 0 0
0.519287896 0 0
0.493383297 0 0
0.468442565 0 0
0.445848676 0 0
0.519287784 0 0
0.493383323 0 0
0.468442595 0 0
0.445848567 0 0
0.519287605 0 0
0.493383320 0 0
0.468442599 0 0
0.445848402 0 0
0.519287943 0 0
0.493383503 0 0
0.468442745 0 0
0.445848678 0 0
0.445848676 0 0
0.426595123 0 0
0.410123116 0 0
0.395484469 0 0
0.445848567 0 0
0.426595133 0 0
0.410123138 0 0
0.395484381 0 0
0.445848402 0 0
0.426595124 0 0
0.410123141 0 0
0.395484242 0 0
0.445848678 0 0
0.426595270 0 0
0.410123272 0 0
0.395484495 0 0
0.395484469 0 0
0.382002001 0 0
0.370087446 0 0
0.360423603 0 0
0.395484381 0 0
0.382002019 0 0
0.370087467 0 0
0.360423517 0 0
0.395484242 0 0
0.382002016 0 0
0.370087468 0 0
0.360423386 0 0
0.395484495 0 0
0.382002153 0 0
0.370087587 0 0
0.360423611 0 0
0.360423603 0 0
0.353498898 0 0
0.349028763 0 0
0.346534290 0 0
0.360423517 0 0
0.353498912 0 0
0.349028779 0 0
0.346534211 0 0
0.360423386 0 0
0.353498907 0 0
0.349028779 0 0
0.346534087 0 0
0.360423611 0 0
0.353499026 0 0
0.349028895 0 0
0.346534308 0 0
0.346534290 0 0
0.345671537 0 0
0.346640639 0 0
0.349776699 0 0
0.346534211 0 0
0.345671555 0 0
0.346640655 0 0
0.349776617 0 0
0.346534087 0 0
0.345671554 0 0
0.346640653 0 0
0.349776490 0 0
0.346534308 0 0
0.345671671 0 0
0.346640770 0 0
0.349776709 0 0
0.349776699 0 0
0.355320048 0 0
0.363136175 0 0
0.372995778 0 0
0.349776617 0 0
0.355320066 0 0
0.363136190 0 0
0.372995692 0 0
0.349776490 0 0
0.355320066 0 0
0.363136187 0 0
0.372995558 0 0
0.349776709 0 0
0.355320181 0 0
0.363136312 0 0
0.372995795 0 0
0.372995778 0 0
0.384732147 0 0
0.398433399 0 0
0.414250199 0 0
0.372995692 0 0
0.384732169 0 0
0.398433414 0 0
0.414250103 0 0
0.372995558 0 0
0.384732171 0 0
0.398433409 0 0
0.414249954 0 0
0.372995795 0 0
0.384732295 0 0
0.398433549 0 0
0.414250215 0 0
0.414250199 0 0
0.432292352 0 0
0.452511121 0 0
0.474816841 0 0
0.414250103 0 0
0.432292377 0 0
0.452511137 0 0
0.474816731 0 0
0.414249954 0 0
0.432292379 0 0
0.452511130 0 0
0.474816560 0 0
0.414250215 0 0
0.432292516 0 0
0.452511291 0 0
0.474816861 0 0
0.474816841 0 0
0.499140402 0 0
0.525500500 0 0
0.553936296 0 0
0.474816731 0 0
0.499140431 0 0
0.525500518 0 0
0.553936167 0 0
0.474816560 0 0
0.499140436 0 0
0.525500509 0 0
0.553935968 0 0
0.474816861 0 0
0.499140593 0 0
0.525500697 0 0
0.553936318 0 0
0.553936296 0 0
0.584480475 0 0
0.617146313 0 0
0.651940492 0 0
0.553936167 0 0
0.584480510 0 0
0.617146334 0 0
0.651940340 0 0
0.553935968 0 0
0.584480516 0 0
0.617146322 0 0
0.651940106 0 0
0.553936318 0 0
0.584480698 0 0
0.617146544 0 0
0.651940519 0 0
0.651940492 0 0
0.688858437 0 0
0.727858152 0 0
0.768886238 0 0
0.651940340 0 0
0.688858479 0 0
0.727858177 0 0
0.768886060 0 0
0.651940106 0 0
0.688858485 0 0
0.727858164 0 0
0.768885785 0 0
0.651940519 0 0
0.688858700 0 0
0.727858425 0 0
0.768886271 0 0
0.768886238 0 0
0.811914450 0 0
0.857024104 0 0
0.904321501 0 0
0.768886060 0 0
0.811914498 0 0
0.857024132 0 0
0.904321290 0 0
0.768885785 0 0
0.811914506 0 0
0.857024117 0 0
0.904320966 0 0
0.768886271 0 0
0.811914760 0 0
0.857024424 0 0
0.904321538 0 0
0.904321501 0 0
0.953864868 0 0
1.005530689 0 0
1.059147180 0 0
0.904321290 0 0
0.953864926 0 0
1.005530726 0 0
1.059146936 0 0
0.904320966 0 0
0.953864935 0 0
1.005530708 0 0
1.059146557 0 0
0.904321538 0 0
0.953865233 0 0
1.005531067 0 0
1.059147227 0 0
1.059147180 0 0
1.114612099 0 0
1.172113704 0 0
1.231909577 0 0
1.059146936 0 0
1.114612164 0 0
1.172113742 0 0
1.231909287 0 0
1.059146557 0 0
1.114612174 0 0
1.172113722 0 0
1.231908846 0 0
1.059147227 0 0
1.114612524 0 0
1.172114141 0 0
1.231909627 0 0
1.231909577 0 0
1.294149798 0 0
1.358568839 0 0
1.424793426 0 0
1.231909287 0 0
1.294149876 0 0
1.358568895 0 0
1.424793102 0 0
1.231908846 0 0
1.294149886 0 0
1.358568872 0 0
1.424792592 0 0
1.231909627 0 0
1.294150293 0 0
1.358569353 0 0
1.424793493 0 0
1.424793426 0 0
1.492599159 0 0
1.562373742 0 0
1.634653482 0 0
1.424793102 0 0
1.492599243 0 0
1.562373784 0 0
1.634653090 0 0
1.424792592 0 0
1.492599254 0 0
1.562373761 0 0
1.634652505 0 0
1.424793493 0 0
1.492599726 0 0
1.562374318 0 0
1.634653543 0 0
1.634653482 0 0
1.709756472 0 0
1.787147079 0 0
1.866071159 0 0
1.634653090 0 0
1.709756578 0 0
1.787147172 0 0
1.866070750 0 0
1.634652505 0 0
1.709756590 0 0
1.787147143 0 0
1.866070081 0 0
1.634653543 0 0
1.709757130 0 0
1.787147771 0 0
1.866071257 0 0
1.866071159 0 0
1.946081649 0 0
2.027981592 0 0
2.112880793 0 0
1.866070750 0 0
1.946081745 0 0
2.027981614 0 0
2.112880259 0 0
1.866070081 0 0
1.946081755 0 0
2.027981584 0 0
2.112879504 0 0
1.866071257 0 0
1.946082371 0 0
2.027982303 0 0
2.112880850 0 0
2.112880793 0 0
2.201451516 0 0
2.292640666 0 0
2.384957260 0 0
2.112880259 0 0
2.201451680 0 0
2.292640859 0 0
2.384956758 0 0
2.112879504 0 0
2.201451697 0 0
2.292640827 0 0
2.384955898 0 0
2.112880850 0 0
2.201452404 0 0
2.292641635 0 0
2.384957393 0 0
2.384957260 0 0
2.478594830 0 0
2.580512835 0 0
2.699354879 0 0
2.384956758 0 0
2.478594829 0 0
2.580512864 0 0
2.699355021 0 0
2.384955898 0 0
2.478594866 0 0
2.580513192 0 0
2.699355394 0 0
2.384957393 0 0
2.478595515 0 0
2.580513217 0 0
2.699354262 0 0
2.699354879 0 0
2.834732974 0 0
2.950130735 0 0
3.000000000 0 0
2.699355021 0 0
2.834732940 0 0
2.950130727 0 0
3.000000000 0 0
2.699355394 0 0
2.834733235 0 0
2.950130751 0 0
3.000000000 0 0
2.699354262 0 0
2.834733469 0 0
2.950130927 0 0
3.000000000 0 0
1.000000000 0 0
0.903555097 0 0
0.841751605 0 0
0.800641829 0 0
1.000000037 0 0
0.903555006 0 0
0.841751488 0 0
0.800642088 0 0
1.000000296 0 0
0.903555081 0 0
0.841751422 0 0
0.800642265 0 0
1.000001000 0 0
0.903555448 0 0
0.841751431 0 0
0.800642551 0 0
0.800641829 0 0
0.767964110 0 0
0.738192733 0 0
0.707487362 0 0
0.800642088 0 0
0.767963952 0 0
0.738192457 0 0
0.707487012 0 0
0.800642265 0 0
0.767963979 0 0
0.738192476 0 0
0.707487018 0 0
0.800642551 0 0
0.767964145 0 0
0.738192602 0 0
0.707487085 0 0
0.707487362 0 0
0.673177374 0 0
0.637275484 0 0
0.602964277 0 0
0.707487012 0 0
0.673177143 0 0
0.637275266 0 0
0.602963956 0 0
0.707487018 0 0
0.673177218 0 0
0.637275327 0 0
0.602963935 0 0
0.707487085 0 0
0.673177353 0 0
0.637275454 0 0
0.602963981 0 0
0.602964277 0 0
0.572606749 0 0
0.545291562 0 0
0.519287943 0 0
0.602963956 0 0
0.572606519 0 0
0.545291368 0 0
0.519287688 0 0
0.602963935 0 0
0.572606545 0 0
0.545291412 0 0
0.519287695 0 0
0.602963981 0 0
0.572606643 0 0
0.545291517 0 0
0.519287745 0 0
0.519287943 0 0
0.493383503 0 0
0.468442745 0 0
0.445848678 0 0
0.519287688 0 0
0.493383326 0 0
0.468442581 0 0
0.445848444 0 0
0.519287695 0 0
0.493383371 0 0
0.468442621 0 0
0.445848433 0 0
0.519287745 0 0
0.493383466 0 0
0.468442712 0 0
0.445848469 0 0
0.445848678 0 0
0.426595270 0 0
0.410123272 0 0
0.395484495 0 0
0.445848444 0 0
0.426595104 0 0
0.410123126 0 0
0.395484299 0 0
0.445848433 0 0
0.426595128 0 0
0.410123159 0 0
0.395484300 0 0
0.445848469 0 0
0.426595204 0 0
0.410123238 0 0
0.395484337 0 0
0.395484495 0 0
0.382002153 0 0
0.370087587 0 0
0.360423611 0 0
0.395484299 0 0
0.382002015 0 0
0.370087455 0 0
0.360423425 0 0
0.395484300 0 0
0.382002047 0 0
0.370087485 0 0
0.360423419 0 0
0.395484337 0 0
0.382002119 0 0
0.370087556 0 0
0.360423448 0 0
0.360423611 0 0
0.353499026 0 0
0.349028895 0 0
0.346534308 0 0
0.360423425 0 0
0.353498893 0 0
0.349028768 0 0
0.346534134 0 0
0.360423419 0 0
0.353498917 0 0
0.349028795 0 0
0.346534133 0 0
0.360423448 0 0
0.353498982 0 0
0.349028861 0 0
0.346534164 0 0
0.346534308 0 0
0.345671671 0 0
0.346640770 0 0
0.349776709 0 0
0.346534134 0 0
0.345671547 0 0
0.346640643 0 0
0.349776531 0 0
0.346534133 0 0
0.345671576 0 0
0.346640670 0 0
0.349776526 0 0
0.346534164 0 0
0.345671642 0 0
0.346640735 0 0
0.349776556 0 0
0.349776709 0 0
0.355320181 0 0
0.363136312 0 0
0.372995795 0 0
0.349776531 0 0
0.355320052 0 0
0.363136178 0 0
0.372995606 0 0
0.349776526 0 0
0.355320079 0 0
0.363136205 0 0
0.372995604 0 0
0.349776556 0 0
0.355320146 0 0
0.363136272 0 0
0.372995637 0 0
0.372995795 0 0
0.384732295 0 0
0.398433549 0 0
0.414250215 0 0
0.372995606 0 0
0.384732159 0 0
0.398433400 0 0
0.414250004 0 0
0.372995604 0 0
0.384732191 0 0
0.398433429 0 0
0.414250000 0 0
0.372995637 0 0
0.384732265 0 0
0.398433503 0 0
0.414250035 0 0
0.414250215 0 0
0.432292516 0 0
0.452511291 0 0
0.474816861 0 0
0.414250004 0 0
0.432292362 0 0
0.452511121 0 0
0.474816620 0 0
0.414250000 0 0
0.432292398 0 0
0.452511153 0 0
0.474816616 0 0
0.414250035 0 0
0.432292481 0 0
0.452511236 0 0
0.474816658 0 0
0.474816861 0 0
0.499140593 0 0
0.525500697 0 0
0.553936318 0 0
0.474816620 0 0
0.499140417 0 0
0.525500499 0 0
0.553936036 0 0
0.474816616 0 0
0.499140459 0 0
0.525500536 0 0
0.553936031 0 0
0.474816658 0 0
0.499140556 0 0
0.525500632 0 0
0.553936080 0 0
0.553936318 0 0
0.584480698 0 0
0.617146544 0 0
0.651940519 0 0
0.553936036 0 0
0.584480492 0 0
0.617146311 0 0
0.651940187 0 0
0.553936031 0 0
0.584480541 0 0
0.617146354 0 0
0.651940182 0 0
0.553936080 0 0
0.584480654 0 0
0.617146467 0 0
0.651940239 0 0
0.651940519 0 0
0.688858700 0 0
0.727858425 0 0
0.768886271 0 0
0.651940187 0 0
0.688858458 0 0
0.727858150 0 0
0.768885879 0 0
0.651940182 0 0
0.688858516 0 0
0.727858201 0 0
0.768885873 0 0
0.651940239 0 0
0.688858650 0 0
0.727858334 0 0
0.768885940 0 0
0.768886271 0 0
0.811914760 0 0
0.857024424 0 0
0.904321538 0 0
0.768885879 0 0
0.811914474 0 0
0.857024100 0 0
0.904321078 0 0
0.768885873 0 0
0.811914542 0 0
0.857024161 0 0
0.904321070 0 0
0.768885940 0 0
0.811914700 0 0
0.857024317 0 0
0.904321149 0 0
0.904321538 0 0
0.953865233 0 0
1.005531067 0 0
1.059147227 0 0
0.904321078 0 0
0.953864897 0 0
1.005530688 0 0
1.059146687 0 0
0.904321070 0 0
0.953864978 0 0
1.005530761 0 0
1.059146679 0 0
0.904321149 0 0
0.953865163 0 0
1.005530945 0 0
1.059146772 0 0
1.059147227 0 0
1.114612524 0 0
1.172114141 0 0
1.231909627 0 0
1.059146687 0 0
1.114612130 0 0
1.172113699 0 0
1.231908998 0 0
1.059146679 0 0
1.114612223 0 0
1.172113781 0 0
1.231908987 0 0
1.059146772 0 0
1.114612439 0 0
1.172113995 0 0
1.231909094 0 0
1.231909627 0 0
1.294150293 0 0
1.358569353 0 0
1.424793493 0 0
1.231908998 0 0
1.294149836 0 0
1.358568843 0 0
1.424792767 0 0
1.231908987 0 0
1.294149946 0 0
1.358568944 0 0
1.424792757 0 0
1.231909094 0 0
1.294150197 0 0
1.358569195 0 0
1.424792883 0 0
1.424793493 0 0
1.492599726 0 0
1.562374318 0 0
1.634653543 0 0
1.424792767 0 0
1.492599195 0 0
1.562373727 0 0
1.634652708 0 0
1.424792757 0 0
1.492599317 0 0
1.562373832 0 0
1.634652689 0 0
1.424792883 0 0
1.492599604 0 0
1.562374116 0 0
1.634652829 0 0
1.634653543 0 0
1.709757130 0 0
1.787147771 0 0
1.866071257 0 0
1.634652708 0 0
1.709756530 0 0
1.787147110 0 0
1.866070309 0 0
1.634652689 0 0
1.709756679 0 0
1.787147256 0 0
1.866070305 0 0
1.634652829 0 0
1.709757013 0 0
1.787147594 0 0
1.866070474 0 0
1.866071257 0 0
1.946082371 0 0
2.027982303 0 0
2.112880850 0 0
1.866070309 0 0
1.946081666 0 0
2.027981516 0 0
2.112879760 0 0
1.866070305 0 0
1.946081811 0 0
2.027981623 0 0
2.112879718 0 0
1.866070474 0 0
1.946082178 0 0
2.027981976 0 0
2.112879890 0 0
2.112880850 0 0
2.201452404 0 0
2.292641635 0 0
2.384957393 0 0
2.112879760 0 0
2.201451659 0 0
2.292640844 0 0
2.384956184 0 0
2.112879718 0 0
2.201451888 0 0
2.292641106 0 0
2.384956188 0 0
2.112879890 0 0
2.201452335 0 0
2.292641576 0 0
2.384956410 0 0
2.384957393 0 0
2.478595515 0 0
2.580513217 0 0
2.699354262 0 0
2.384956184 0 0
2.478594561 0 0
2.580512710 0 0
2.699355253 0 0
2.384956188 0 0
2.478594598 0 0
2.580512801 0 0
2.699355936 0 0
2.384956410 0 0
2.478595010 0 0
2.580513352 0 0
2.699356934 0 0
2.699354262 0 0
2.834733469 0 0
2.950130927 0 0
3.000000000 0 0
2.699355253 0 0
2.834733275 0 0
2.950130822 0 0
3.000000111 0 0
2.699355936 0 0
2.834733266 0 0
2.950131300 0 0
3.000000889 0 0
2.699356934 0 0
2.834733391 0 0
2.950132588 0 0
3.000003000 0 0
1.000001000 0 0
0.903555448 0 0
0.841751431 0 0
0.800642551 0 0
1.000000296 0 0
0.903555081 0 0
0.841751422 0 0
0.800642265 0 0
1.000000037 0 0
0.903555006 0 0
0.841751488 0 0
0.800642088 0 0
1.000000000 0 0
0.903555097 0 0
0.841751605 0 0
0.800641829 0 0
0.800642551 0 0
0.767964145 0 0
0.738192602 0 0
0.707487085 0 0
0.800642265 0 0
0.767963979 0 0
0.738192476 0 0
0.707487018 0 0
0.800642088 0 0
0.767963952 0 0
0.738192457 0 0
0.707487012 0 0
0.800641829 0 0
0.767964110 0 0
0.738192733 0 0
0.707487362 0 0
0.707487085 0 0
0.673177353 0 0
0.637275454 0 0
0.602963981 0 0
0.707487018 0 0
0.673177218 0 0
0.637275327 0 0
0.602963935 0 0
0.707487012 0 0
0.673177143 0 0
0.637275266 0 0
0.602963956 0 0
0.707487362 0 0
0.673177374 0 0
0.637275484 0 0
0.602964277 0 0
0.602963981 0 0
0.572606643 0 0
0.545291517 0 0
0.519287745 0 0
0.602963935 0 0
0.572606545 0 0
0.545291412 0 0
0.519287695 0 0
0.602963956 0 0
0.572606519 0 0
0.545291368 0 0
0.519287688 0 0
0.602964277 0 0
0.572606749 0 0
0.545291562 0 0
0.519287943 0 0
0.519287745 0 0
0.493383466 0 0
0.468442712 0 0
0.445848469 0 0
0.519287695 0 0
0.493383371 0 0
0.468442621 0 0
0.445848433 0 0
0.519287688 0 0
0.493383326 0 0
0.468442581 0 0
0.445848444 0 0
0.519287943 0 0
0.493383503 0 0
0.468442745 0 0
0.445848678 0 0
0.445848469 0 0
0.426595204 0 0
0.410123238 0 0
0.395484337 0 0
0.445848433 0 0
0.426595128 0 0
0.410123159 0 0
0.395484300 0 0
0.445848444 0 0
0.426595104 0 0
0.410123126 0 0
0.395484299 0 0
0.445848678 0 0
0.426595270 0 0
0.410123272 0 0
0.395484495 0 0
0.395484337 0 0
0.382002119 0 0
0.370087556 0 0
0.360423448 0 0
0.395484300 0 0
0.382002047 0 0
0.370087485 0 0
0.360423419 0 0
0.395484299 0 0
0.382002015 0 0
0.370087455 0 0
0.360423425 0 0
0.395484495 0 0
0.382002153 0 0
0.370087587 0 0
0.360423611 0 0
0.360423448 0 0
0.353498982 0 0
0.349028861 0 0
0.346534164 0 0
0.360423419 0 0
0.353498917 0 0
0.349028795 0 0
0.346534133 0 0
0.360423425 0 0
0.353498893 0 0
0.349028768 0 0
0.346534134 0 0
0.360423611 0 0
0.353499026 0 0
0.349028895 0 0
0.346534308 0 0
0.346534164 0 0
0.345671642 0 0
0.346640735 0 0
0.349776556 0 0
0.346534133 0 0
0.345671576 0 0
0.346640670 0 0
0.349776526 0 0
0.346534134 0 0
0.345671547 0 0
0.346640643 0 0
0.349776531 0 0
0.346534308 0 0
0.345671671 0 0
0.346640770 0 0
0.349776709 0 0
0.349776556 0 0
0.355320146 0 0
0.363136272 0 0
0.372995637 0 0
0.349776526 0 0
0.355320079 0 0
0.363136205 0 0
0.372995604 0 0
0.349776531 0 0
0.355320052 0 0
0.363136178 0 0
0.372995606 0 0
0.349776709 0 0
0.355320181 0 0
0.363136312 0 0
0.372995795 0 0
0.372995637 0 0
0.384732265 0 0
0.398433503 0 0
0.414250035 0 0
0.372995604 0 0
0.384732191 0 0
0.398433429 0 0
0.414250000 0 0
0.372995606 0 0
0.384732159 0 0
0.398433400 0 0
0.414250004 0 0
0.372995795 0 0
0.384732295 0 0
0.398433549 0 0
0.414250215 0 0
0.414250035 0 0
0.432292481 0 0
0.452511236 0 0
0.474816658 0 0
0.414250000 0 0
0.432292398 0 0
0.452511153 0 0
0.474816616 0 0
0.414250004 0 0
0.432292362 0 0
0.452511121 0 0
0.474816620 0 0
0.414250215 0 0
0.432292516 0 0
0.452511291 0 0
0.474816861 0 0
0.474816658 0 0
0.499140556 0 0
0.525500632 0 0
0.553936080 0 0
0.474816616 0 0
0.499140459 0 0
0.525500536 0 0
0.553936031 0 0
0.474816620 0 0
0.499140417 0 0
0.525500499 0 0
0.553936036 0 0
0.474816861 0 0
0.499140593 0 0
0.525500697 0 0
0.553936318 0 0
0.553936080 0 0
0.584480654 0 0
0.617146467 0 0
0.651940239 0 0
0.553936031 0 0
0.584480541 0 0
0.617146354 0 0
0.651940182 0 0
0.553936036 0 0
0.584480492 0 0
0.617146311 0 0
0.651940187 0 0
0.553936318 0 0
0.584480698 0 0
0.617146544 0 0
0.651940519 0 0
0.651940239 0 0
0.688858650 0 0
0.727858334 0 0
0.768885940 0 0
0.651940182 0 0
0.688858516 0 0
0.727858201 0 0
0.768885873 0 0
0.651940187 0 0
0.688858458 0 0
0.727858150 0 0
0.768885879 0 0
0.651940519 0 0
0.688858700 0 0
0.727858425 0 0
0.768886271 0 0
0.768885940 0 0
0.811914700 0 0
0.857024317 0 0
0.904321149 0 0
0.768885873 0 0
0.811914542 0 0
0.857024161 0 0
0.904321070 0 0
0.768885879 0 0
0.811914474 0 0
0.857024100 0 0
0.904321078 0 0
0.768886271 0 0
0.811914760 0 0
0.857024424 0 0
0.904321538 0 0
0.904321149 0 0
0.953865163 0 0
1.005530945 0 0
1.059146772 0 0
0.904321070 0 0
0.953864978 0 0
1.005530761 0 0
1.059146679 0 0
0.904321078 0 0
0.953864897 0 0
1.005530688 0 0
1.059146687 0 0
0.904321538 0 0
0.953865233 0 0
1.005531067 0 0
1.059147227 0 0
1.059146772 0 0
1.114612439 0 0
1.172113995 0 0
1.231909094 0 0
1.059146679 0 0
1.114612223 0 0
1.172113781 0 0
1.231908987 0 0
1.059146687 0 0
1.114612130 0 0
1.172113699 0 0
1.231908998 0 0
1.059147227 0 0
1.114612524 0 0
1.172114141 0 0
1.231909627 0 0
1.231909094 0 0
1.294150197 0 0
1.358569195 0 0
1.424792883 0 0
1.231908987 0 0
1.294149946 0 0
1.358568944 0 0
1.424792757 0 0
1.231908998 0 0
1.294149836 0 0
1.358568843 0 0
1.424792767 0 0
1.231909627 0 0
1.294150293 0 0
1.358569353 0 0
1.424793493 0 0
1.424792883 0 0
1.492599604 0 0
1.562374116 0 0
1.634652829 0 0
1.424792757 0 0
1.492599317 0 0
1.562373832 0 0
1.634652689 0 0
1.424792767 0 0
1.492599195 0 0
1.562373727 0 0
1.634652708 0 0
1.424793493 0 0
1.492599726 0 0
1.562374318 0 0
1.634653543 0 0
1.634652829 0 0
1.709757013 0 0
1.787147594 0 0
1.866070474 0 0
1.634652689 0 0
1.709756679 0 0
1.787147256 0 0
1.866070305 0 0
1.634652708 0 0
1.709756530 0 0
1.787147110 0 0
1.866070309 0 0
1.634653543 0 0
1.709757130 0 0
1.787147771 0 0
1.866071257 0 0
1.866070474 0 0
1.946082178 0 0
2.027981976 0 0
2.112879890 0 0
1.866070305 0 0
1.946081811 0 0
2.027981623 0 0
2.112879718 0 0
1.866070309 0 0
1.946081666 0 0
2.027981516 0 0
2.112879760 0 0
1.866071257 0 0
1.946082371 0 0
2.027982303 0 0
2.112880850 0 0
2.112879890 0 0
2.201452335 0 0
2.292641576 0 0
2.384956410 0 0
2.112879718 0 0
2.201451888 0 0
2.292641106 0 0
2.384956188 0 0
2.112879760 0 0
2.201451659 0 0
2.292640844 0 0
2.384956184 0 0
2.112880850 0 0
2.201452404 0 0
2.292641635 0 0
2.384957393 0 0
2.384956410 0 0
2.478595010 0 0
2.580513352 0 0
2.699356934 0 0
2.384956188 0 0
2.478594598 0 0
2.580512801 0 0
2.699355936 0 0
2.384956184 0 0
2.478594561 0 0
2.580512710 0 0
2.699355253 0 0
2.384957393 0 0
2.478595515 0 0
2.580513217 0 0
2.699354262 0 0
2.699356934 0 0
2.834733391 0 0
2.950132588 0 0
3.000003000 0 0
2.699355936 0 0
2.834733266 0 0
2.950131300 0 0
3.000000889 0 0
2.699355253 0 0
2.834733275 0 0
2.950130822 0 0
3.000000111 0 0
2.699354262 0 0
2.834733469 0 0
2.950130927 0 0
3.000000000 0 0
1.000000000 0 0
0.903555097 0 0
0.841751605 0 0
0.800641829 0 0
1.000000000 0 0
0.903555055 0 0
0.841751561 0 0
0.800642194 0 0
1.000000000 0 0
0.903555030 0 0
0.841751475 0 0
0.800642105 0 0
1.000000000 0 0
0.903555022 0 0
0.841751481 0 0
0.800642070 0 0
0.800641829 0 0
0.767964110 0 0
0.738192733 0 0
0.707487362 0 0
0.800642194 0 0
0.767964119 0 0
0.738192533 0 0
0.707486895 0 0
0.800642105 0 0
0.767964039 0 0
0.738192521 0 0
0.707487133 0 0
0.800642070 0 0
0.767964039 0 0
0.738192527 0 0
0.707487282 0 0
0.707487362 0 0
0.673177374 0 0
0.637275484 0 0
0.602964277 0 0
0.707486895 0 0
0.673177118 0 0
0.637275287 0 0
0.602963908 0 0
0.707487133 0 0
0.673177116 0 0
0.637275279 0 0
0.602964135 0 0
0.707487282 0 0
0.673177062 0 0
0.637275230 0 0
0.602964290 0 0