# vtk DataFile Version 2.0
Square plate test
ASCII
DATASET UNSTRUCTURED_GRID
POINTS 196 float
10 0.500000000 0
9.950000000 0.500000000 0
9.554000000 0.500000000 0
9.158000000 0.500000000 0
8.762000000 0.500000000 0
8.366000000 0.500000000 0
7.970000000 0.500000000 0
7.574000000 0.500000000 0
7.178000000 0.500000000 0
6.782000000 0.500000000 0
6.386000000 0.500000000 0
5.990000000 0.500000000 0
5.594000000 0.500000000 0
5.198000000 0.500000000 0
4.802000000 0.500000000 0
4.406000000 0.500000000 0
4.010000000 0.500000000 0
3.614000000 0.500000000 0
3.218000000 0.500000000 0
2.822000000 0.500000000 0
2.426000000 0.500000000 0
2.030000000 0.500000000 0
1.634000000 0.500000000 0
1.238000000 0.500000000 0
0.842000000 0.500000000 0
0.446000000 0.500000000 0
0.050000000 0.500000000 0
0.000000000 0.500000000 0
10.000000000 0.460000000 0
9.950000000 0.460000000 0
9.554000000 0.460000000 0
9.158000000 0.460000000 0
8.762000000 0.460000000 0
8.366000000 0.460000000 0
7.970000000 0.460000000 0
7.574000000 0.460000000 0
7.178000000 0.460000000 0
6.782000000 0.460000000 0
6.386000000 0.460000000 0
5.990000000 0.460000000 0
5.594000000 0.460000000 0
5.198000000 0.460000000 0
4.802000000 0.460000000 0
4.406000000 0.460000000 0
4.010000000 0.460000000 0
3.614000000 0.460000000 0
3.218000000 0.460000000 0
2.822000000 0.460000000 0
2.426000000 0.460000000 0
2.030000000 0.460000000 0
1.634000000 0.460000000 0
1.238000000 0.460000000 0
0.842000000 0.460000000 0
0.446000000 0.460000000 0
0.050000000 0.460000000 0
0.000000000 0.460000000 0
10.000000000 0.230000000 0
9.950000000 0.230000000 0
9.554000000 0.230000000 0
9.158000000 0.230000000 0
8.762000000 0.230000000 0
8.366000000 0.230000000 0
7.970000000 0.230000000 0
7.574000000 0.230000000 0
7.178000000 0.230000000 0
6.782000000 0.230000000 0
6.386000000 0.230000000 0
5.990000000 0.230000000 0
5.594000000 0.230000000 0
5.198000000 0.230000000 0
4.802000000 0.230000000 0
4.406000000 0.230000000 0
4.010000000 0.230000000 0
3.614000000 0.230000000 0
3.218000000 0.230000000 0
2.822000000 0.230000000 0
2.426000000 0.230000000 0
2.030000000 0.230000000 0
1.634000000 0.230000000 0
1.238000000 0.230000000 0
0.842000000 0.230000000 0
0.446000000 0.230000000 0
0.050000000 0.230000000 0
0.000000000 0.230000000 0
10.000000000 0.000000000 0
9.950000000 0.000000000 0
9.554000000 0.000000000 0
9.158000000 0.000000000 0
8.762000000 0.000000000 0
8.366000000 0.000000000 0
7.970000000 0.000000000 0
7.574000000 0.000000000 0
7.178000000 0.000000000 0
6.782000000 0.000000000 0
6.386000000 0.000000000 0
5.990000000 0.000000000 0
5.594000000 0.000000000 0
5.198000000 0.000000000 0
4.802000000 0.000000000 0
4.406000000 0.000000000 0
4.010000000 0.000000000 0
3.614000000 0.000000000 0
3.218000000 0.000000000 0
2.822000000 0.000000000 0
2.426000000 -0.000000000 0
2.030000000 -0.000000000 0
1.634000000 -0.000000000 0
1.238000000 -0.000000000 0
0.842000000 -0.000000000 0
0.446000000 -0.000000000 0
0.050000000 -0.000000000 0
0.000000000 -0.000000000 0
10.000000000 -0.230000000 0
9.950000000 -0.230000000 0
9.554000000 -0.230000000 0
9.158000000 -0.230000000 0
8.762000000 -0.230000000 0
8.366000000 -0.230000000 0
7.970000000 -0.230000000 0
7.574000000 -0.230000000 0
7.178000000 -0.230000000 0
6.782000000 -0.230000000 0
6.386000000 -0.230000000 0
5.990000000 -0.230000000 0
5.594000000 -0.230000000 0
5.198000000 -0.230000000 0
4.802000000 -0.230000000 0
4.406000000 -0.230000000 0
4.010000000 -0.230000000 0
3.614000000 -0.230000000 0
3.218000000 -0.230000000 0
2.822000000 -0.230000000 0
2.426000000 -0.230000000 0
2.030000000 -0.230000000 0
1.634000000 -0.230000000 0
1.238000000 -0.230000000 0
0.842000000 -0.230000000 0
0.446000000 -0.230000000 0
0.050000000 -0.230000000 0
0.000000000 -0.230000000 0
10.000000000 -0.460000000 0
9.950000000 -0.460000000 0
9.554000000 -0.460000000 0
9.158000000 -0.460000000 0
8.762000000 -0.460000000 0
8.366000000 -0.460000000 0
7.970000000 -0.460000000 0
7.574000000 -0.460000000 0
7.178000000 -0.460000000 0
6.782000000 -0.460000000 0
6.386000000 -0.460000000 0
5.990000000 -0.460000000 0
5.594000000 -0.460000000 0
5.198000000 -0.460000000 0
4.802000000 -0.460000000 0
4.406000000 -0.460000000 0
4.010000000 -0.460000000 0
3.614000000 -0.460000000 0
3.218000000 -0.460000000 0
2.822000000 -0.460000000 0
2.426000000 -0.460000000 0
2.030000000 -0.460000000 0
1.634000000 -0.460000000 0
1.238000000 -0.460000000 0
0.842000000 -0.460000000 0
0.446000000 -0.460000000 0
0.050000000 -0.460000000 0
0.000000000 -0.460000000 0
10.000000000 -0.500000000 0
9.950000000 -0.500000000 0
9.554000000 -0.500000000 0
9.158000000 -0.500000000 0
8.762000000 -0.500000000 0
8.366000000 -0.500000000 0
7.970000000 -0.500000000 0
7.574000000 -0.500000000 0
7.178000000 -0.500000000 0
6.782000000 -0.500000000 0
6.386000000 -0.500000000 0
5.990000000 -0.500000000 0
5.594000000 -0.500000000 0
5.198000000 -0.500000000 0
4.802000000 -0.500000000 0
4.406000000 -0.500000000 0
4.010000000 -0.500000000 0
3.614000000 -0.500000000 0
3.218000000 -0.500000000 0
2.822000000 -0.500000000 0
2.426000000 -0.500000000 0
2.030000000 -0.500000000 0
1.634000000 -0.500000000 0
1.238000000 -0.500000000 0
0.842000000 -0.500000000 0
0.446000000 -0.500000000 0
0.050000000 -0.500000000 0
0.000000000 -0.500000000 0

CELLS 162 810
4 0 1 29 28
4 1 2 30 29
4 2 3 31 30
4 3 4 32 31
4 4 5 33 32
4 5 6 34 33
4 6 7 35 34
4 7 8 36 35
4 8 9 37 36
4 9 10 38 37
4 10 11 39 38
4 11 12 40 39
4 12 13 41 40
4 13 14 42 41
4 14 15 43 42
4 15 16 44 43
4 16 17 45 44
4 17 18 46 45
4 18 19 47 46
4 19 20 48 47
4 20 21 49 48
4 21 22 50 49
4 22 23 51 50
4 23 24 52 51
4 24 25 53 52
4 25 26 54 53
4 26 27 55 54
4 28 29 57 56
4 29 30 58 57
4 30 31 59 58
4 31 32 60 59
4 32 33 61 60
4 33 34 62 61
4 34 35 63 62
4 35 36 64 63
4 36 37 65 64
4 37 38 66 65
4 38 39 67 66
4 39 40 68 67
4 40 41 69 68
4 41 42 70 69
4 42 43 71 70
4 43 44 72 71
4 44 45 73 72
4 45 46 74 73
4 46 47 75 74
4 47 48 76 75
4 48 49 77 76
4 49 50 78 77
4 50 51 79 78
4 51 52 80 79
4 52 53 81 80
4 53 54 82 81
4 54 55 83 82
4 56 57 85 84
4 57 58 86 85
4 58 59 87 86
4 59 60 88 87
4 60 61 89 88
4 61 62 90 89
4 62 63 91 90
4 63 64 92 91
4 64 65 93 92
4 65 66 94 93
4 66 67 95 94
4 67 68 96 95
4 68 69 97 96
4 69 70 98 97
4 70 71 99 98
4 71 72 100 99
4 72 73 101 100
4 73 74 102 101
4 74 75 103 102
4 75 76 104 103
4 76 77 105 104
4 77 78 106 105
4 78 79 107 106
4 79 80 108 107
4 80 81 109 108
4 81 82 110 109
4 82 83 111 110
4 84 85 113 112
4 85 86 114 113
4 86 87 115 114
4 87 88 116 115
4 88 89 117 116
4 89 90 118 117
4 90 91 119 118
4 91 92 120 119
4 92 93 121 120
4 93 94 122 121
4 94 95 123 122
4 95 96 124 123
4 96 97 125 124
4 97 98 126 125
4 98 99 127 126
4 99 100 128 127
4 100 101 129 128
4 101 102 130 129
4 102 103 131 130
4 103 104 132 131
4 104 105 133 132
4 105 106 134 133
4 106 107 135 134
4 107 108 136 135
4 108 109 137 136
4 109 110 138 137
4 110 111 139 138
4 112 113 141 140
4 113 114 142 141
4 114 115 143 142
4 115 116 144 143
4 116 117 145 144
4 117 118 146 145
4 118 119 147 146
4 119 120 148 147
4 120 121 149 148
4 121 122 150 149
4 122 123 151 150
4 123 124 152 151
4 124 125 153 152
4 125 126 154 153
4 126 127 155 154
4 127 128 156 155
4 128 129 157 156
4 129 130 158 157
4 130 131 159 158
4 131 132 160 159
4 132 133 161 160
4 133 134 162 161
4 134 135 163 162
4 135 136 164 163
4 136 137 165 164
4 137 138 166 165
4 138 139 167 166
4 140 141 169 168
4 141 142 170 169
4 142 143 171 170
4 143 144 172 171
4 144 145 173 172
4 145 146 174 173
4 146 147 175 174
4 147 148 176 175
4 148 149 177 176
4 149 150 178 177
4 150 151 179 178
4 151 152 180 179
4 152 153 181 180
4 153 154 182 181
4 154 155 183 182
4 155 156 184 183
4 156 157 185 184
4 157 158 186 185
4 158 159 187 186
4 159 160 188 187
4 160 161 189 188
4 161 162 190 189
4 162 163 191 190
4 163 164 192 191
4 164 165 193 192
4 165 166 194 193
4 166 167 195 194

CELL_TYPES 162
9
9
9
9
9
9
9
9
9
9
9
9
9
9
9
9
9
9
9
9
9
9
9
9
9
9
9
9
9
9
9
9
9
9
9
9
9
9
9
9
9
9
9
9
9
9
9
9
9
9
9
9
9
9
9
9
9
9
9
9
9
9
9
9
9
9
9
9
9
9
9
9
9
9
9
9
9
9
9
9
9
9
9
9
9
9
9
9
9
9
9
9
9
9
9
9
9
9
9
9
9
9
9
9
9
9
9
9
9
9
9
9
9
9
9
9
9
9
9
9
9
9
9
9
9
9
9
9
9
9
9
9
9
9
9
9
9
9
9
9
9
9
9
9
9
9
9
9
9
9
9
9
9
9
9
9
9
9
9
9
9
9
POINT_DATA 196
VECTORS y float
0 0 1.000000000
0 0 1.000000000
0 0 1.000000000
0 0 0.127727232
0 0 0.178679316
0 0 0.256740317
0 0 0.316377492
0 0 0.376718938
0 0 0.429090356
0 0 0.476862699
0 0 0.518156087
0 0 0.553253698
0 0 0.581363904
0 0 0.601994277
0 0 0.614381299
0 0 0.617718147
0 0 0.611208974
0 0 0.593872941
0 0 0.565293523
0 0 0.524083602
0 0 0.471801664
0 0 0.404169172
0 0 0.332022912
0 0 0.232865370
0 0 0.164614011
0 0 3.000000000
0 0 3.000000000
0 0 3.000000000
0 0 1.000000000
0 0 1.000000000
0 0 1.000000000
0 0 0.127727300
0 0 0.178679322
0 0 0.256740393
0 0 0.316377545
0 0 0.376719023
0 0 0.429090440
0 0 0.476862799
0 0 0.518156193
0 0 0.553253812
0 0 0.581364024
0 0 0.601994402
0 0 0.614381427
0 0 0.617718275
0 0 0.611209102
0 0 0.593873063
0 0 0.565293643
0 0 0.524083707
0 0 0.471801771
0 0 0.404169241
0 0 0.332023010
0 0 0.232865380
0 0 0.164614099
0 0 3.000000000
0 0 3.000000000
0 0 3.000000000
0 0 1.000000000
0 0 1.000000000
0 0 1.000000000
0 0 0.127727187
0 0 0.178679430
0 0 0.256740394
0 0 0.316377648
0 0 0.376719098
0 0 0.429090554
0 0 0.476862913
0 0 0.518156324
0 0 0.553253949
0 0 0.581364168
0 0 0.601994549
0 0 0.614381576
0 0 0.617718424
0 0 0.611209245
0 0 0.593873203
0 0 0.565293766
0 0 0.524083831
0 0 0.471801850
0 0 0.404169356
0 0 0.332023000
0 0 0.232865505
0 0 0.164613945
0 0 3.000000000
0 0 3.000000000
0 0 3.000000000
0 0 1.000000000
0 0 1.000000000
0 0 1.000000000
0 0 0.127727548
0 0 0.178679594
0 0 0.256740821
0 0 0.316378047
0 0 0.376719632
0 0 0.429091129
0 0 0.476863567
0 0 0.518157025
0 0 0.553254700
0 0 0.581364955
0 0 0.601995364
0 0 0.614382405
0 0 0.617719255
0 0 0.611210067
0 0 0.593873995
0 0 0.565294527
0 0 0.524084518
0 0 0.471802503
0 0 0.404169853
0 0 0.332023535
0 0 0.232865715
0 0 0.164614403
0 0 3.000000000
0 0 3.000000000
0 0 3.000000000
0 0 1.000000000
0 0 1.000000000
0 0 1.000000000
0 0 0.127727187
0 0 0.178679430
0 0 0.256740394
0 0 0.316377648
0 0 0.376719098
0 0 0.429090554
0 0 0.476862913
0 0 0.518156324
0 0 0.553253949
0 0 0.581364168
0 0 0.601994549
0 0 0.614381576
0 0 0.617718424
0 0 0.611209245
0 0 0.593873203
0 0 0.565293766
0 0 0.524083831
0 0 0.471801850
0 0 0.404169356
0 0 0.332023000
0 0 0.232865505
0 0 0.164613945
0 0 3.000000000
0 0 3.000000000
0 0 3.000000000
0 0 1.000000000
0 0 1.000000000
0 0 1.000000000
0 0 0.127727300
0 0 0.178679322
0 0 0.256740393
0 0 0.316377545
0 0 0.376719023
0 0 0.429090440
0 0 0.476862799
0 0 0.518156193
0 0 0.553253812
0 0 0.581364024
0 0 0.601994402
0 0 0.614381427
0 0 0.617718275
0 0 0.611209102
0 0 0.593873063
0 0 0.565293643
0 0 0.524083707
0 0 0.471801771
0 0 0.404169241
0 0 0.332023010
0 0 0.232865380
0 0 0.164614099
0 0 3.000000000
0 0 3.000000000
0 0 3.000000000
0 0 1.000000000
0 0 1.000000000
0 0 1.000000000
0 0 0.127727232
0 0 0.178679316
0 0 0.256740317
0 0 0.316377492
0 0 0.376718938
0 0 0.429090356
0 0 0.476862699
0 0 0.518156087
0 0 0.553253698
0 0 0.581363904
0 0 0.601994277
0 0 0.614381299
0 0 0.617718147
0 0 0.611208974
0 0 0.593872941
0 0 0.565293523
0 0 0.524083602
0 0 0.471801664
0 0 0.404169172
0 0 0.332022912
0 0 0.232865370
0 0 0.164614011
0 0 3.000000000
0 0 3.000000000
0 0 3.000000000
VECTORS u float
0 0 0.000000000
0 0 -0.000000000
0 0 0.000000000
0 0 0.888631642
0 0 1.043494369
0 0 1.363191969
0 0 1.516030510
0 0 1.691629592
0 0 1.848705199
0 0 2.037617874
0 0 2.261686866
0 0 2.536369787
0 0 2.863642194
0 0 3.242379974
0 0 3.664049393
0 0 4.112789330
0 0 4.567880620
0 0 4.995181426
0 0 5.366356570
0 0 5.612828281
0 0 5.731169380
0 0 5.538237356
0 0 5.236584210
0 0 4.106426997
0 0 3.530347858
0 0 0.000000000
0 0 -0.000000000
0 0 0.000000000
0 0 -0.000000000
0 0 0.000000000
0 0 -0.000000000
0 0 0.888632203
0 0 1.043494352
0 0 1.363192475
0 0 1.516030763
0 0 1.691630046
0 0 1.848705598
0 0 2.037618361
0 0 2.261687379
0 0 2.536370372
0 0 2.863642846
0 0 3.242380711
0 0 3.664050230
0 0 4.112790257
0 0 4.567881676
0 0 4.995182530
0 0 5.366357861
0 0 5.612829440
0 0 5.731170936
0 0 5.538238216
0 0 5.236586153
0 0 4.106426902
0 0 3.530350049
0 0 -0.000000000
0 0 0.000000000
0 0 -0.000000000
0 0 0.000000000
0 0 -0.000000000
0 0 0.000000000
0 0 0.888630871
0 0 1.043494791
0 0 1.363191854
0 0 1.516030866
0 0 1.691629815
0 0 1.848705598
0 0 2.037618290
0 0 2.261687386
0 0 2.536370382
0 0 2.863642891
0 0 3.242380778
0 0 3.664050304
0 0 4.112790363
0 0 4.567881729
0 0 4.995182670
0 0 5.366357754
0 0 5.612829685
0 0 5.731170283
0 0 5.538238930
0 0 5.236583960
0 0 4.106428878
0 0 3.530345016
0 0 0.000000000
0 0 -0.000000000
0 0 0.000000000
0 0 -0.000000000
0 0 0.000000000
0 0 -0.000000000
0 0 0.888633181
0 0 1.043494965
0 0 1.363193633
0 0 1.516031932
0 0 1.691631513
0 0 1.848707232
0 0 2.037620262
0 0 2.261689552
0 0 2.536372882
0 0 2.863645734
0 0 3.242384021
0 0 3.664053995
0 0 4.112794479
0 0 4.567886351
0 0 4.995187568
0 0 5.366363237
0 0 5.612834860
0 0 5.731176513
0 0 5.538243117
0 0 5.236591290
0 0 4.106429864
0 0 3.530354364
0 0 -0.000000000
0 0 0.000000000
0 0 -0.000000000
0 0 0.000000000
0 0 -0.000000000
0 0 0.000000000
0 0 0.888630871
0 0 1.043494791
0 0 1.363191854
0 0 1.516030866
0 0 1.691629815
0 0 1.848705598
0 0 2.037618290
0 0 2.261687386
0 0 2.536370382
0 0 2.863642891
0 0 3.242380778
0 0 3.664050304
0 0 4.112790363
0 0 4.567881729
0 0 4.995182670
0 0 5.366357754
0 0 5.612829685
0 0 5.731170283
0 0 5.538238930
0 0 5.236583960
0 0 4.106428878
0 0 3.530345016
0 0 0.000000000
0 0 -0.000000000
0 0 0.000000000
0 0 -0.000000000
0 0 0.000000000
0 0 -0.000000000
0 0 0.888632203
0 0 1.043494352
0 0 1.363192475
0 0 1.516030763
0 0 1.691630046
0 0 1.848705598
0 0 2.037618361
0 0 2.261687379
0 0 2.536370372
0 0 2.863642846
0 0 3.242380711
0 0 3.664050230
0 0 4.112790257
0 0 4.567881676
0 0 4.995182530
0 0 5.366357861
0 0 5.612829440
0 0 5.731170936
0 0 5.538238216
0 0 5.236586153
0 0 4.106426902
0 0 3.530350049
0 0 -0.000000000
0 0 0.000000000
0 0 -0.000000000
0 0 0.000000000
0 0 -0.000000000
0 0 0.000000000
0 0 0.888631642
0 0 1.043494369
0 0 1.363191969
0 0 1.516030510
0 0 1.691629592
0 0 1.848705199
0 0 2.037617874
0 0 2.261686866
0 0 2.536369787
0 0 2.863642194
0 0 3.242379974
0 0 3.664049393
0 0 4.112789330
0 0 4.567880620
0 0 4.995181426
0 0 5.366356570
0 0 5.612828281
0 0 5.731169380
0 0 5.538237356
0 0 5.236584210
0 0 4.106426997
0 0 3.530347858
0 0 0.000000000
0 0 -0.000000000
0 0 0.000000000
VECTORS lamda float
0 0 0.000000000
0 0 0.000000000
0 0 0.000000000
0 0 0.008886316
0 0 0.010434944
0 0 0.013631920
0 0 0.015160305
0 0 0.016916296
0 0 0.018487052
0 0 0.020376179
0 0 0.022616869
0 0 0.025363698
0 0 0.028636422
0 0 0.032423800
0 0 0.036640494
0 0 0.041127893
0 0 0.045678806
0 0 0.049951814
0 0 0.053663566
0 0 0.056128283
0 0 0.057311694
0 0 0.055382374
0 0 0.052365842
0 0 0.041064270
0 0 0.035303479
0 0 0.000000000
0 0 0.000000000
0 0 0.000000000
0 0 0.000000000
0 0 0.000000000
0 0 0.000000000
0 0 0.008886322
0 0 0.010434944
0 0 0.013631925
0 0 0.015160308
0 0 0.016916300
0 0 0.018487056
0 0 0.020376184
0 0 0.022616874
0 0 0.025363704
0 0 0.028636428
0 0 0.032423807
0 0 0.036640502
0 0 0.041127903
0 0 0.045678817
0 0 0.049951825
0 0 0.053663579
0 0 0.056128294
0 0 0.057311709
0 0 0.055382382
0 0 0.052365862
0 0 0.041064269
0 0 0.035303500
0 0 0.000000000
0 0 0.000000000
0 0 0.000000000
0 0 0.000000000
0 0 0.000000000
0 0 0.000000000
0 0 0.008886309
0 0 0.010434948
0 0 0.013631919
0 0 0.015160309
0 0 0.016916298
0 0 0.018487056
0 0 0.020376183
0 0 0.022616874
0 0 0.025363704
0 0 0.028636429
0 0 0.032423808
0 0 0.036640503
0 0 0.041127904
0 0 0.045678817
0 0 0.049951827
0 0 0.053663578
0 0 0.056128297
0 0 0.057311703
0 0 0.055382389
0 0 0.052365840
0 0 0.041064289
0 0 0.035303450
0 0 0.000000000
0 0 0.000000000
0 0 0.000000000
0 0 0.000000000
0 0 0.000000000
0 0 0.000000000
0 0 0.008886332
0 0 0.010434950
0 0 0.013631936
0 0 0.015160319
0 0 0.016916315
0 0 0.018487072
0 0 0.020376203
0 0 0.022616896
0 0 0.025363729
0 0 0.028636457
0 0 0.032423840
0 0 0.036640540
0 0 0.041127945
0 0 0.045678864
0 0 0.049951876
0 0 0.053663632
0 0 0.056128349
0 0 0.057311765
0 0 0.055382431
0 0 0.052365913
0 0 0.041064299
0 0 0.035303544
0 0 0.000000000
0 0 0.000000000
0 0 0.000000000
0 0 0.000000000
0 0 0.000000000
0 0 0.000000000
0 0 0.008886309
0 0 0.010434948
0 0 0.013631919
0 0 0.015160309
0 0 0.016916298
0 0 0.018487056
0 0 0.020376183
0 0 0.022616874
0 0 0.025363704
0 0 0.028636429
0 0 0.032423808
0 0 0.036640503
0 0 0.041127904
0 0 0.045678817
0 0 0.049951827
0 0 0.053663578
0 0 0.056128297
0 0 0.057311703
0 0 0.055382389
0 0 0.052365840
0 0 0.041064289
0 0 0.035303450
0 0 0.000000000
0 0 0.000000000
0 0 0.000000000
0 0 0.000000000
0 0 0.000000000
0 0 0.000000000
0 0 0.008886322
0 0 0.010434944
0 0 0.013631925
0 0 0.015160308
0 0 0.016916300
0 0 0.018487056
0 0 0.020376184
0 0 0.022616874
0 0 0.025363704
0 0 0.028636428
0 0 0.032423807
0 0 0.036640502
0 0 0.041127903
0 0 0.045678817
0 0 0.049951825
0 0 0.053663579
0 0 0.056128294
0 0 0.057311709
0 0 0.055382382
0 0 0.052365862
0 0 0.041064269
0 0 0.035303500
0 0 0.000000000
0 0 0.000000000
0 0 0.000000000
0 0 0.000000000
0 0 0.000000000
0 0 0.000000000
0 0 0.008886316
0 0 0.010434944
0 0 0.013631920
0 0 0.015160305
0 0 0.016916296
0 0 0.018487052
0 0 0.020376179
0 0 0.022616869
0 0 0.025363698
0 0 0.028636422
0 0 0.032423800
0 0 0.036640494
0 0 0.041127893
0 0 0.045678806
0 0 0.049951814
0 0 0.053663566
0 0 0.056128283
0 0 0.057311694
0 0 0.055382374
0 0 0.052365842
0 0 0.041064270
0 0 0.035303479
0 0 0.000000000
0 0 0.000000000
0 0 0.000000000
