# vtk DataFile Version 2.0
Hex test
ASCII
DATASET UNSTRUCTURED_GRID
POINTS 640 float
10 0.500000000 0.000000000
9.821203704 0.500000000 0.000000000
9.462962963 0.500000000 0.000000000
9.042500000 0.500000000 0.000000000
10.000000000 0.438487667 0.000000000
9.821203704 0.438487667 0.000000000
9.462962963 0.438487667 0.000000000
9.042500000 0.438487667 0.000000000
10.000000000 0.347901333 0.000000000
9.821203704 0.347901333 0.000000000
9.462962963 0.347901333 0.000000000
9.042500000 0.347901333 0.000000000
10.000000000 0.249167000 0.000000000
9.821203704 0.249167000 0.000000000
9.462962963 0.249167000 0.000000000
9.042500000 0.249167000 0.000000000
9.042500000 0.500000000 0.000000000
8.654444444 0.500000000 0.000000000
8.303055556 0.500000000 0.000000000
7.970000000 0.500000000 0.000000000
9.042500000 0.438487667 0.000000000
8.654444444 0.438487667 0.000000000
8.303055556 0.438487667 0.000000000
7.970000000 0.438487667 0.000000000
9.042500000 0.347901333 0.000000000
8.654444444 0.347901333 0.000000000
8.303055556 0.347901333 0.000000000
7.970000000 0.347901333 0.000000000
9.042500000 0.249167000 0.000000000
8.654444444 0.249167000 0.000000000
8.303055556 0.249167000 0.000000000
7.970000000 0.249167000 0.000000000
7.970000000 0.500000000 0.000000000
7.640000000 0.500000000 0.000000000
7.310000000 0.500000000 0.000000000
6.980000000 0.500000000 0.000000000
7.970000000 0.438487667 0.000000000
7.640000000 0.438487667 0.000000000
7.310000000 0.438487667 0.000000000
6.980000000 0.438487667 0.000000000
7.970000000 0.347901333 0.000000000
7.640000000 0.347901333 0.000000000
7.310000000 0.347901333 0.000000000
6.980000000 0.347901333 0.000000000
7.970000000 0.249167000 0.000000000
7.640000000 0.249167000 0.000000000
7.310000000 0.249167000 0.000000000
6.980000000 0.249167000 0.000000000
6.980000000 0.500000000 0.000000000
6.650000000 0.500000000 0.000000000
6.320000000 0.500000000 0.000000000
5.990000000 0.500000000 0.000000000
6.980000000 0.438487667 0.000000000
6.650000000 0.438487667 0.000000000
6.320000000 0.438487667 0.000000000
5.990000000 0.438487667 0.000000000
6.980000000 0.347901333 0.000000000
6.650000000 0.347901333 0.000000000
6.320000000 0.347901333 0.000000000
5.990000000 0.347901333 0.000000000
6.980000000 0.249167000 0.000000000
6.650000000 0.249167000 0.000000000
6.320000000 0.249167000 0.000000000
5.990000000 0.249167000 0.000000000
5.990000000 0.500000000 0.000000000
5.660000000 0.500000000 0.000000000
5.330000000 0.500000000 0.000000000
5.000000000 0.500000000 0.000000000
5.990000000 0.438487667 0.000000000
5.660000000 0.438487667 0.000000000
5.330000000 0.438487667 0.000000000
5.000000000 0.438487667 0.000000000
5.990000000 0.347901333 0.000000000
5.660000000 0.347901333 0.000000000
5.330000000 0.347901333 0.000000000
5.000000000 0.347901333 0.000000000
5.990000000 0.249167000 0.000000000
5.660000000 0.249167000 0.000000000
5.330000000 0.249167000 0.000000000
5.000000000 0.249167000 0.000000000
5.000000000 0.500000000 0.000000000
4.670000000 0.500000000 0.000000000
4.340000000 0.500000000 0.000000000
4.010000000 0.500000000 0.000000000
5.000000000 0.438487667 0.000000000
4.670000000 0.438487667 0.000000000
4.340000000 0.438487667 0.000000000
4.010000000 0.438487667 0.000000000
5.000000000 0.347901333 0.000000000
4.670000000 0.347901333 0.000000000
4.340000000 0.347901333 0.000000000
4.010000000 0.347901333 0.000000000
5.000000000 0.249167000 0.000000000
4.670000000 0.249167000 0.000000000
4.340000000 0.249167000 0.000000000
4.010000000 0.249167000 0.000000000
4.010000000 0.500000000 0.000000000
3.680000000 0.500000000 0.000000000
3.350000000 0.500000000 0.000000000
3.020000000 0.500000000 0.000000000
4.010000000 0.438487667 0.000000000
3.680000000 0.438487667 0.000000000
3.350000000 0.438487667 0.000000000
3.020000000 0.438487667 0.000000000
4.010000000 0.347901333 0.000000000
3.680000000 0.347901333 0.000000000
3.350000000 0.347901333 0.000000000
3.020000000 0.347901333 0.000000000
4.010000000 0.249167000 0.000000000
3.680000000 0.249167000 0.000000000
3.350000000 0.249167000 0.000000000
3.020000000 0.249167000 0.000000000
3.020000000 0.500000000 0.000000000
2.690000000 0.500000000 0.000000000
2.360000000 0.500000000 0.000000000
2.030000000 0.500000000 0.000000000
3.020000000 0.438487667 0.000000000
2.690000000 0.438487667 0.000000000
2.360000000 0.438487667 0.000000000
2.030000000 0.438487667 0.000000000
3.020000000 0.347901333 0.000000000
2.690000000 0.347901333 0.000000000
2.360000000 0.347901333 0.000000000
2.030000000 0.347901333 0.000000000
3.020000000 0.249167000 0.000000000
2.690000000 0.249167000 0.000000000
2.360000000 0.249167000 0.000000000
2.030000000 0.249167000 0.000000000
2.030000000 0.500000000 0.000000000
1.696944444 0.500000000 0.000000000
1.345555556 0.500000000 0.000000000
0.957500000 0.500000000 0.000000000
2.030000000 0.438487667 0.000000000
1.696944444 0.438487667 0.000000000
1.345555556 0.438487667 0.000000000
0.957500000 0.438487667 0.000000000
2.030000000 0.347901333 0.000000000
1.696944444 0.347901333 0.000000000
1.345555556 0.347901333 0.000000000
0.957500000 0.347901333 0.000000000
2.030000000 0.249167000 0.000000000
1.696944444 0.249167000 0.000000000
1.345555556 0.249167000 0.000000000
0.957500000 0.249167000 0.000000000
0.957500000 0.500000000 0.000000000
0.537037037 0.500000000 0.000000000
0.178796296 0.500000000 0.000000000
0.000000000 0.500000000 0.000000000
0.957500000 0.438487667 0.000000000
0.537037037 0.438487667 0.000000000
0.178796296 0.438487667 0.000000000
0.000000000 0.438487667 0.000000000
0.957500000 0.347901333 0.000000000
0.537037037 0.347901333 0.000000000
0.178796296 0.347901333 0.000000000
0.000000000 0.347901333 0.000000000
0.957500000 0.249167000 0.000000000
0.537037037 0.249167000 0.000000000
0.178796296 0.249167000 0.000000000
0.000000000 0.249167000 0.000000000
10.000000000 0.249167000 0.000000000
9.821203704 0.249167000 0.000000000
9.462962963 0.249167000 0.000000000
9.042500000 0.249167000 0.000000000
10.000000000 0.159012304 0.000000000
9.821203704 0.159012304 0.000000000
9.462962963 0.159012304 0.000000000
9.042500000 0.159012304 0.000000000
10.000000000 0.077376496 0.000000000
9.821203704 0.077376496 0.000000000
9.462962963 0.077376496 0.000000000
9.042500000 0.077376496 0.000000000
10.000000000 0.000000000 0.000000000
9.821203704 0.000000000 0.000000000
9.462962963 0.000000000 0.000000000
9.042500000 0.000000000 0.000000000
9.042500000 0.249167000 0.000000000
8.654444444 0.249167000 0.000000000
8.303055556 0.249167000 0.000000000
7.970000000 0.249167000 0.000000000
9.042500000 0.159012304 0.000000000
8.654444444 0.159012304 0.000000000
8.303055556 0.159012304 0.000000000
7.970000000 0.159012304 0.000000000
9.042500000 0.077376496 0.000000000
8.654444444 0.077376496 0.000000000
8.303055556 0.077376496 0.000000000
7.970000000 0.077376496 0.000000000
9.042500000 0.000000000 0.000000000
8.654444444 0.000000000 0.000000000
8.303055556 0.000000000 0.000000000
7.970000000 0.000000000 0.000000000
7.970000000 0.249167000 0.000000000
7.640000000 0.249167000 0.000000000
7.310000000 0.249167000 0.000000000
6.980000000 0.249167000 0.000000000
7.970000000 0.159012304 0.000000000
7.640000000 0.159012304 0.000000000
7.310000000 0.159012304 0.000000000
6.980000000 0.159012304 0.000000000
7.970000000 0.077376496 0.000000000
7.640000000 0.077376496 0.000000000
7.310000000 0.077376496 0.000000000
6.980000000 0.077376496 0.000000000
7.970000000 0.000000000 0.000000000
7.640000000 0.000000000 0.000000000
7.310000000 0.000000000 0.000000000
6.980000000 0.000000000 0.000000000
6.980000000 0.249167000 0.000000000
6.650000000 0.249167000 0.000000000
6.320000000 0.249167000 0.000000000
5.990000000 0.249167000 0.000000000
6.980000000 0.159012304 0.000000000
6.650000000 0.159012304 0.000000000
6.320000000 0.159012304 0.000000000
5.990000000 0.159012304 0.000000000
6.980000000 0.077376496 0.000000000
6.650000000 0.077376496 0.000000000
6.320000000 0.077376496 0.000000000
5.990000000 0.077376496 0.000000000
6.980000000 0.000000000 0.000000000
6.650000000 0.000000000 0.000000000
6.320000000 0.000000000 0.000000000
5.990000000 0.000000000 0.000000000
5.990000000 0.249167000 0.000000000
5.660000000 0.249167000 0.000000000
5.330000000 0.249167000 0.000000000
5.000000000 0.249167000 0.000000000
5.990000000 0.159012304 0.000000000
5.660000000 0.159012304 0.000000000
5.330000000 0.159012304 0.000000000
5.000000000 0.159012304 0.000000000
5.990000000 0.077376496 0.000000000
5.660000000 0.077376496 0.000000000
5.330000000 0.077376496 0.000000000
5.000000000 0.077376496 0.000000000
5.990000000 0.000000000 0.000000000
5.660000000 0.000000000 0.000000000
5.330000000 0.000000000 0.000000000
5.000000000 0.000000000 0.000000000
5.000000000 0.249167000 0.000000000
4.670000000 0.249167000 0.000000000
4.340000000 0.249167000 0.000000000
4.010000000 0.249167000 0.000000000
5.000000000 0.159012304 0.000000000
4.670000000 0.159012304 0.000000000
4.340000000 0.159012304 0.000000000
4.010000000 0.159012304 0.000000000
5.000000000 0.077376496 0.000000000
4.670000000 0.077376496 0.000000000
4.340000000 0.077376496 0.000000000
4.010000000 0.077376496 0.000000000
5.000000000 0.000000000 0.000000000
4.670000000 0.000000000 0.000000000
4.340000000 0.000000000 0.000000000
4.010000000 0.000000000 0.000000000
4.010000000 0.249167000 0.000000000
3.680000000 0.249167000 0.000000000
3.350000000 0.249167000 0.000000000
3.020000000 0.249167000 0.000000000
4.010000000 0.159012304 0.000000000
3.680000000 0.159012304 0.000000000
3.350000000 0.159012304 0.000000000
3.020000000 0.159012304 0.000000000
4.010000000 0.077376496 0.000000000
3.680000000 0.077376496 0.000000000
3.350000000 0.077376496 0.000000000
3.020000000 0.077376496 0.000000000
4.010000000 0.000000000 0.000000000
3.680000000 0.000000000 0.000000000
3.350000000 0.000000000 0.000000000
3.020000000 0.000000000 0.000000000
3.020000000 0.249167000 0.000000000
2.690000000 0.249167000 0.000000000
2.360000000 0.249167000 0.000000000
[...]
POINT_DATA 640
VECTORS y float
1.000000000 0 0
0.296296296 0 0
0.037037037 0 0
0.000000000 0 0
1.000000000 0 0
0.296296296 0 0
0.037037037 0 0
0.000000000 0 0
1.000000000 0 0
0.296296296 0 0
0.037037037 0 0
0.000000000 0 0
1.000000000 0 0
0.296296296 0 0
0.037037037 0 0
0.000000000 0 0
0.000000000 0 0
0.000000000 0 0
0.000000000 0 0
0.000000000 0 0
0.000000000 0 0
0.000000000 0 0
0.000000000 0 0
0.000000000 0 0
0.000000000 0 0
0.000000000 0 0
0.000000000 0 0
0.000000000 0 0
0.000000000 0 0
0.000000000 0 0
0.000000000 0 0
0.000000000 0 0
0.000000000 0 0
0.000000000 0 0
0.000000000 0 0
0.000000000 0 0
0.000000000 0 0
0.000000000 0 0
0.000000000 0 0
0.000000000 0 0
0.000000000 0 0
0.000000000 0 0
0.000000000 0 0
0.000000000 0 0
0.000000000 0 0
0.000000000 0 0
0.000000000 0 0
0.000000000 0 0
0.000000000 0 0
0.000000000 0 0
0.000000000 0 0
0.000000000 0 0
0.000000000 0 0
0.000000000 0 0
0.000000000 0 0
0.000000000 0 0
0.000000000 0 0
0.000000000 0 0
0.000000000 0 0
0.000000000 0 0
0.000000000 0 0
0.000000000 0 0
0.000000000 0 0
0.000000000 0 0
0.000000000 0 0
0.000000000 0 0
0.000000000 0 0
0.000000000 0 0
0.000000000 0 0
0.000000000 0 0
0.000000000 0 0
0.000000000 0 0
0.000000000 0 0
0.000000000 0 0
0.000000000 0 0
0.000000000 0 0
0.000000000 0 0
0.000000000 0 0
0.000000000 0 0
0.000000000 0 0
0.000000000 0 0
0.000000000 0 0
0.000000000 0 0
0.000000000 0 0
0.000000000 0 0
0.000000000 0 0
0.000000000 0 0
0.000000000 0 0
0.000000000 0 0
0.000000000 0 0
0.000000000 0 0
0.000000000 0 0
0.000000000 0 0
0.000000000 0 0
0.000000000 0 0
0.000000000 0 0
0.000000000 0 0
0.000000000 0 0
0.000000000 0 0
0.000000000 0 0
0.000000000 0 0
0.000000000 0 0
0.000000000 0 0
0.000000000 0 0
0.000000000 0 0
0.000000000 0 0
0.000000000 0 0
0.000000000 0 0
0.000000000 0 0
0.000000000 0 0
0.000000000 0 0
0.000000000 0 0
0.000000000 0 0
0.000000000 0 0
0.000000000 0 0
0.000000000 0 0
0.000000000 0 0
0.000000000 0 0
0.000000000 0 0
0.000000000 0 0
0.000000000 0 0
0.000000000 0 0
0.000000000 0 0
0.000000000 0 0
0.000000000 0 0
0.000000000 0 0
0.000000000 0 0
0.000000000 0 0
0.000000000 0 0
0.000000000 0 0
0.000000000 0 0
0.000000000 0 0
0.000000000 0 0
0.000000000 0 0
0.000000000 0 0
0.000000000 0 0
0.000000000 0 0
0.000000000 0 0
0.000000000 0 0
0.000000000 0 0
0.000000000 0 0
0.000000000 0 0
0.000000000 0 0
0.000000000 0 0
0.000000000 0 0
0.111111111 0 0
0.888888889 0 0
3.000000000 0 0
0.000000000 0 0
0.111111111 0 0
0.888888889 0 0
3.000000000 0 0
0.000000000 0 0
0.111111111 0 0
0.888888889 0 0
3.000000000 0 0
0.000000000 0 0
0.111111111 0 0
0.888888889 0 0
3.000000000 0 0
1.000000000 0 0
0.296296296 0 0
0.037037037 0 0
0.000000000 0 0
1.000000037 0 0
0.296296307 0 0
0.037037038 0 0
0.000000000 0 0
1.000000296 0 0
0.296296384 0 0
0.037037048 0 0
0.000000000 0 0
1.000001000 0 0
0.296296593 0 0
0.037037074 0 0
0.000000000 0 0
0.000000000 0 0
0.000000000 0 0
0.000000000 0 0
0.000000000 0 0
0.000000000 0 0
0.000000000 0 0
0.000000000 0 0
0.000000000 0 0
0.000000000 0 0
0.000000000 0 0
0.000000000 0 0
0.000000000 0 0
0.000000000 0 0
0.000000000 0 0
0.000000000 0 0
0.000000000 0 0
0.000000000 0 0
0.000000000 0 0
0.000000000 0 0
0.000000000 0 0
0.000000000 0 0
0.000000000 0 0
0.000000000 0 0
0.000000000 0 0
0.000000000 0 0
0.000000000 0 0
0.000000000 0 0
0.000000000 0 0
0.000000000 0 0
0.000000000 0 0
0.000000000 0 0
0.000000000 0 0
0.000000000 0 0
0.000000000 0 0
0.000000000 0 0
0.000000000 0 0
0.000000000 0 0
0.000000000 0 0
0.000000000 0 0
0.000000000 0 0
0.000000000 0 0
0.000000000 0 0
0.000000000 0 0
0.000000000 0 0
0.000000000 0 0
0.000000000 0 0
0.000000000 0 0
0.000000000 0 0
0.000000000 0 0
0.000000000 0 0
0.000000000 0 0
0.000000000 0 0
0.000000000 0 0
0.000000000 0 0
0.000000000 0 0
0.000000000 0 0
0.000000000 0 0
0.000000000 0 0
0.000000000 0 0
0.000000000 0 0
0.000000000 0 0
0.000000000 0 0
0.000000000 0 0
0.000000000 0 0
0.000000000 0 0
0.000000000 0 0
0.000000000 0 0
0.000000000 0 0
0.000000000 0 0
0.000000000 0 0
0.000000000 0 0
0.000000000 0 0
0.000000000 0 0
0.000000000 0 0
0.000000000 0 0
0.000000000 0 0
0.000000000 0 0
0.000000000 0 0
0.000000000 0 0
0.000000000 0 0
0.000000000 0 0
0.000000000 0 0
0.000000000 0 0
0.000000000 0 0
0.000000000 0 0
0.000000000 0 0
0.000000000 0 0
0.000000000 0 0
0.000000000 0 0
0.000000000 0 0
0.000000000 0 0
0.000000000 0 0
0.000000000 0 0
0.000000000 0 0
0.000000000 0 0
0.000000000 0 0
0.000000000 0 0
0.000000000 0 0
0.000000000 0 0
0.000000000 0 0
0.000000000 0 0
0.000000000 0 0
0.000000000 0 0
0.000000000 0 0
0.000000000 0 0
0.000000000 0 0
0.000000000 0 0
0.000000000 0 0
0.000000000 0 0
0.000000000 0 0
0.000000000 0 0
0.000000000 0 0
0.000000000 0 0
0.000000000 0 0
0.000000000 0 0
0.000000000 0 0
0.000000000 0 0
0.000000000 0 0
0.000000000 0 0
0.000000000 0 0
0.000000000 0 0
0.000000000 0 0
0.000000000 0 0
0.000000000 0 0
0.000000000 0 0
0.000000000 0 0
0.000000000 0 0
0.000000000 0 0
0.000000000 0 0
0.111111111 0 0
0.888888889 0 0
3.000000000 0 0
0.000000000 0 0
0.111111115 0 0
0.888888922 0 0
3.000000111 0 0
0.000000000 0 0
0.111111144 0 0
0.888889152 0 0
3.000000889 0 0
0.000000000 0 0
0.111111222 0 0
0.888889778 0 0
3.000003000 0 0
1.000001000 0 0
0.296296593 0 0
0.037037074 0 0
0.000000000 0 0
1.000000296 0 0
0.296296384 0 0
0.037037048 0 0
0.000000000 0 0
1.000000037 0 0
0.296296307 0 0
0.037037038 0 0
0.000000000 0 0
1.000000000 0 0
0.296296296 0 0
0.037037037 0 0
0.000000000 0 0
0.000000000 0 0
0.000000000 0 0
0.000000000 0 0
0.000000000 0 0
0.000000000 0 0
0.000000000 0 0
0.000000000 0 0
0.000000000 0 0
0.000000000 0 0
0.000000000 0 0
0.000000000 0 0
0.000000000 0 0
0.000000000 0 0
0.000000000 0 0
0.000000000 0 0
0.000000000 0 0
0.000000000 0 0
0.000000000 0 0
0.000000000 0 0
0.000000000 0 0
0.000000000 0 0
0.000000000 0 0
0.000000000 0 0
0.000000000 0 0
0.000000000 0 0
0.000000000 0 0
0.000000000 0 0
0.000000000 0 0
0.000000000 0 0
0.000000000 0 0
0.000000000 0 0
0.000000000 0 0
0.000000000 0 0
0.000000000 0 0
0.000000000 0 0
0.000000000 0 0
0.000000000 0 0
0.000000000 0 0
0.000000000 0 0
0.000000000 0 0
0.000000000 0 0
0.000000000 0 0
0.000000000 0 0
0.000000000 0 0
0.000000000 0 0
0.000000000 0 0
0.000000000 0 0
0.000000000 0 0
0.000000000 0 0
0.000000000 0 0
0.000000000 0 0
0.000000000 0 0
0.000000000 0 0
0.000000000 0 0
0.000000000 0 0
0.000000000 0 0
0.000000000 0 0
0.000000000 0 0
0.000000000 0 0
0.000000000 0 0
0.000000000 0 0
0.000000000 0 0
0.000000000 0 0
0.000000000 0 0
0.000000000 0 0
0.000000000 0 0
0.000000000 0 0
0.000000000 0 0
0.000000000 0 0
0.000000000 0 0
0.000000000 0 0
0.000000000 0 0
0.000000000 0 0
0.000000000 0 0
0.000000000 0 0
0.000000000 0 0
0.000000000 0 0
0.000000000 0 0
0.000000000 0 0
0.000000000 0 0
0.000000000 0 0
0.000000000 0 0
0.000000000 0 0
0.000000000 0 0
0.000000000 0 0
0.000000000 0 0
0.000000000 0 0
0.000000000 0 0
0.000000000 0 0
0.000000000 0 0
0.000000000 0 0
0.000000000 0 0
0.000000000 0 0
0.000000000 0 0
0.000000000 0 0
0.000000000 0 0
0.000000000 0 0
0.000000000 0 0
0.000000000 0 0
0.000000000 0 0
0.000000000 0 0
0.000000000 0 0
0.000000000 0 0
0.000000000 0 0
0.000000000 0 0
0.000000000 0 0
0.000000000 0 0
0.000000000 0 0
0.000000000 0 0
0.000000000 0 0
0.000000000 0 0
0.000000000 0 0
0.000000000 0 0
0.000000000 0 0
0.000000000 0 0
0.000000000 0 0
0.000000000 0 0
0.000000000 0 0
0.000000000 0 0
0.000000000 0 0
0.000000000 0 0
0.000000000 0 0
0.000000000 0 0
0.000000000 0 0
0.000000000 0 0
0.000000000 0 0
0.000000000 0 0
0.000000000 0 0
0.000000000 0 0
0.111111222 0 0
0.888889778 0 0
3.000003000 0 0
0.000000000 0 0
0.111111144 0 0
0.888889152 0 0
3.000000889 0 0
0.000000000 0 0
0.111111115 0 0
0.888888922 0 0
3.000000111 0 0
0.000000000 0 0
0.111111111 0 0
0.888888889 0 0
3.000000000 0 0
1.000000000 0 0
0.296296296 0 0
0.037037037 0 0
0.000000000 0 0
1.000000000 0 0
0.296296296 0 0
0.037037037 0 0
0.000000000 0 0
1.000000000 0 0
0.296296296 0 0
0.037037037 0 0
0.000000000 0 0
1.000000000 0 0
0.296296296 0 0
0.037037037 0 0
0.000000000 0 0
0.000000000 0 0
0.000000000 0 0
0.000000000 0 0
0.000000000 0 0
0.000000000 0 0
0.000000000 0 0
0.000000000 0 0
0.000000000 0 0
0.000000000 0 0
0.000000000 0 0
0.000000000 0 0
0.000000000 0 0
0.000000000 0 0
0.000000000 0 0
0.000000000 0 0
0.000000000 0 0
0.000000000 0 0
0.000000000 0 0
0.000000000 0 0
0.000000000 0 0
0.000000000 0 0
0.000000000 0 0
0.000000000 0 0
0.000000000 0 0
0.000000000 0 0
0.000000000 0 0
0.000000000 0 0
0.000000000 0 0
0.000000000 0 0
0.000000000 0 0
0.000000000 0 0
0.000000000 0 0
0.000000000 0 0
0.000000000 0 0
0.000000000 0 0
0.000000000 0 0
0.000000000 0 0
0.000000000 0 0
0.000000000 0 0
0.000000000 0 0
0.000000000 0 0
0.000000000 0 0
0.000000000 0 0
0.000000000 0 0
0.000000000 0 0
0.000000000 0 0
0.000000000 0 0
0.000000000 0 0
0.000000000 0 0
0.000000000 0 0
0.000000000 0 0
0.000000000 0 0
0.000000000 0 0
0.000000000 0 0
0.000000000 0 0
0.000000000 0 0
0.000000000 0 0
0.000000000 0 0
0.000000000 0 0
0.000000000 0 0
0.000000000 0 0
0.000000000 0 0
0.000000000 0 0
0.000000000 0 0
0.000000000 0 0
0.000000000 0 0
0.000000000 0 0
0.000000000 0 0
0.000000000 0 0
0.000000000 0 0
0.000000000 0 0
0.000000000 0 0
0.000000000 0 0
0.000000000 0 0
0.000000000 0 0
0.000000000 0 0
0.000000000 0 0
0.000000000 0 0
0.000000000 0 0
0.000000000 0 0
0.000000000 0 0
0.000000000 0 0
0.000000000 0 0
0.000000000 0 0
0.000000000 0 0
0.000000000 0 0
0.000000000 0 0
0.000000000 0 0
0.000000000 0 0
0.000000000 0 0
0.000000000 0 0
0.000000000 0 0
0.000000000 0 0
0.000000000 0 0
0.000000000 0 0
0.000000000 0 0
0.000000000 0 0
0.000000000 0 0
0.000000000 0 0
0.000000000 0 0
0.000000000 0 0
0.000000000 0 0
0.000000000 0 0
0.000000000 0 0
0.000000000 0 0
0.000000000 0 0
0.000000000 0 0
0.000000000 0 0
0.000000000 0 0
0.000000000 0 0
0.000000000 0 0
0.000000000 0 0
0.000000000 0 0
0.000000000 0 0
0.000000000 0 0
0.000000000 0 0
0.000000000 0 0
0.000000000 0 0
0.000000000 0 0
0.000000000 0 0
0.000000000 0 0
0.000000000 0 0
0.000000000 0 0
0.000000000 0 0
0.000000000 0 0
0.000000000 0 0
0.000000000 0 0
0.000000000 0 0
0.000000000 0 0
0.111111111 0 0
0.888888889 0 0
3.000000000 0 0
0.000000000 0 0
0.111111111 0 0
0.888888889 0 0
3.000000000 0 0
0.000000000 0 0
0.111111111 0 0
0.888888889 0 0
3.000000000 0 0
0.000000000 0 0
0.111111111 0 0
0.888888889 0 0
3.000000000 0 0
VECTORS u float
0.000000000 0 0
0.447836639 0 0
1.097825742 0 0
1.689978861 0 0
-0.000000000 0 0
0.447836653 0 0
1.097825710 0 0
1.689978958 0 0
-0.000000000 0 0
0.447836617 0 0
1.097825827 0 0
1.689979269 0 0
0.000000000 0 0
0.447836647 0 0
1.097825891 0 0
1.689978737 0 0
1.689978861 0 0
2.024022039 0 0
2.138539283 0 0
2.131829094 0 0
1.689978958 0 0
2.024022053 0 0
2.138539251 0 0
2.131828636 0 0
1.689979269 0 0
2.024022270 0 0
2.138539223 0 0
2.131827882 0 0
1.689978737 0 0
2.024022364 0 0
2.138539827 0 0
2.131829240 0 0
2.131829094 0 0
2.084994449 0 0
2.010381264 0 0
1.903140074 0 0
2.131828636 0 0
2.084994618 0 0
2.010381411 0 0
1.903139603 0 0
2.131827882 0 0
2.084994610 0 0
2.010381425 0 0
1.903138919 0 0
2.131829240 0 0
2.084995339 0 0
2.010382062 0 0
1.903140135 0 0
1.903140074 0 0
1.761420659 0 0
1.595392288 0 0
1.418223978 0 0
1.903139603 0 0
1.761420659 0 0
1.595392394 0 0
1.418223669 0 0
1.903138919 0 0
1.761420593 0 0
1.595392426 0 0
1.418223168 0 0
1.903140135 0 0
1.761421247 0 0
1.595392876 0 0
1.418224069 0 0
1.418223978 0 0
1.240925634 0 0
1.065889231 0 0
0.893348342 0 0
1.418223669 0 0
1.240925673 0 0
1.065889328 0 0
0.893348124 0 0
1.418223168 0 0
1.240925631 0 0
1.065889368 0 0
0.893347800 0 0
1.418224069 0 0
1.240926126 0 0
1.065889652 0 0
0.893348363 0 0
0.893348342 0 0
0.724759805 0 0
0.566485688 0 0
0.426112005 0 0
0.893348124 0 0
0.724759788 0 0
0.566485750 0 0
0.426111910 0 0
0.893347800 0 0
0.724759742 0 0
0.566485792 0 0
0.426111756 0 0
0.893348363 0 0
0.724760059 0 0
0.566485916 0 0
0.426112016 0 0
0.426112005 0 0
0.309337707 0 0
0.214320540 0 0
0.137331703 0 0
0.426111910 0 0
0.309337702 0 0
0.214320568 0 0
0.137331664 0 0
0.426111756 0 0
0.309337679 0 0
0.214320588 0 0
0.137331608 0 0
0.426112016 0 0
0.309337827 0 0
0.214320623 0 0
0.137331685 0 0
0.137331703 0 0
0.077402477 0 0
0.044607198 0 0
0.051780565 0 0
0.137331664 0 0
0.077402470 0 0
0.044607214 0 0
0.051780546 0 0
0.137331608 0 0
0.077402462 0 0
0.044607230 0 0
0.051780516 0 0
0.137331685 0 0
0.077402516 0 0
0.044607236 0 0
0.051780520 0 0
0.051780565 0 0
0.102648653 0 0
0.164505319 0 0
0.195535673 0 0
0.051780546 0 0
0.102648659 0 0
0.164505298 0 0
0.195535710 0 0
0.051780516 0 0
0.102648679 0 0
0.164505308 0 0
0.195535782 0 0
0.051780520 0 0
0.102648654 0 0
0.164505325 0 0
0.195535682 0 0
0.195535673 0 0
0.165572603 0 0
0.091037672 0 0
0.000000000 0 0
0.195535710 0 0
0.165572601 0 0
0.091037668 0 0
-0.000000000 0 0
0.195535782 0 0
0.165572622 0 0
0.091037664 0 0
-0.000000000 0 0
0.195535682 0 0
0.165572623 0 0
0.091037668 0 0
0.000000000 0 0
0.000000000 0 0
0.447836647 0 0
1.097825891 0 0
1.689978737 0 0
0.000000000 0 0
0.447836573 0 0
1.097825709 0 0
1.689978712 0 0
-0.000000000 0 0
0.447836613 0 0
1.097825719 0 0
1.689979052 0 0
-0.000000000 0 0
0.447836615 0 0
1.097825699 0 0
1.689979759 0 0
1.689978737 0 0
2.024022364 0 0
2.138539827 0 0
2.131829240 0 0
1.689978712 0 0
2.024021756 0 0
2.138538985 0 0
2.131828136 0 0
1.689979052 0 0
2.024021877 0 0
2.138539069 0 0
2.131828123 0 0
1.689979759 0 0
2.024022367 0 0
2.138539450 0 0
2.131828314 0 0
2.131829240 0 0
2.084995339 0 0
2.010382062 0 0
1.903140135 0 0
2.131828136 0 0
2.084994587 0 0
2.010381348 0 0
1.903139119 0 0
2.131828123 0 0
2.084994785 0 0
2.010381532 0 0
1.903139080 0 0
2.131828314 0 0
2.084995194 0 0
2.010381931 0 0
1.903139239 0 0
1.903140135 0 0
1.761421247 0 0
1.595392876 0 0
1.418224069 0 0
1.903139119 0 0
1.761420531 0 0
1.595392327 0 0
1.418223350 0 0
1.903139080 0 0
1.761420624 0 0
1.595392464 0 0
1.418223344 0 0
1.903139239 0 0
1.761420928 0 0
1.595392780 0 0
1.418223471 0 0
1.418224069 0 0
1.240926126 0 0
1.065889652 0 0
0.893348363 0 0
1.418223350 0 0
1.240925639 0 0
1.065889307 0 0
0.893347905 0 0
1.418223344 0 0
1.240925723 0 0
1.065889414 0 0
0.893347894 0 0
1.418223471 0 0
1.240925943 0 0
1.065889635 0 0
0.893347970 0 0
0.893348363 0 0
0.724760059 0 0
0.566485916 0 0
0.426112016 0 0
0.893347905 0 0
0.724759751 0 0
0.566485752 0 0
0.426111817 0 0
0.893347894 0 0
0.724759781 0 0
0.566485812 0 0
0.426111816 0 0
0.893347970 0 0
0.724759896 0 0
0.566485932 0 0
0.426111852 0 0
0.426112016 0 0
0.309337827 0 0
0.214320623 0 0
0.137331685 0 0
0.426111817 0 0
0.309337698 0 0
0.214320569 0 0
0.137331624 0 0
0.426111816 0 0
0.309337710 0 0
0.214320595 0 0
0.137331624 0 0
0.426111852 0 0
0.309337756 0 0
0.214320643 0 0
0.137331635 0 0
0.137331685 0 0
0.077402516 0 0
0.044607236 0 0
0.051780520 0 0
0.137331624 0 0
0.077402480 0 0
0.044607240 0 0
0.051780525 0 0
0.137331624 0 0
0.077402477 0 0
0.044607244 0 0
0.051780524 0 0
0.137331635 0 0
0.077402483 0 0
0.044607250 0 0
0.051780522 0 0
0.051780520 0 0
0.102648654 0 0
0.164505325 0 0
0.195535682 0 0
0.051780525 0 0
0.102648641 0 0
0.164505263 0 0
0.195535707 0 0
0.051780524 0 0
0.102648646 0 0
0.164505262 0 0
0.195535764 0 0
0.051780522 0 0
0.102648668 0 0
0.164505300 0 0
0.195535867 0 0
0.195535682 0 0
0.165572623 0 0
0.091037668 0 0
0.000000000 0 0
0.195535707 0 0
0.165572598 0 0
0.091037652 0 0
0.000000000 0 0
0.195535764 0 0
0.165572600 0 0
0.091037656 0 0
0.000000000 0 0
0.195535867 0 0
0.165572600 0 0
0.091037666 0 0
-0.000000000 0 0
-0.000000000 0 0
0.447836615 0 0
1.097825699 0 0
1.689979759 0 0
-0.000000000 0 0
0.447836613 0 0
1.097825719 0 0
1.689979052 0 0
0.000000000 0 0
0.447836573 0 0
1.097825709 0 0
1.689978712 0 0
0.000000000 0 0
0.447836647 0 0
1.097825891 0 0
1.689978737 0 0
1.689979759 0 0
2.024022367 0 0
2.138539450 0 0
2.131828314 0 0
1.689979052 0 0
2.024021877 0 0
2.138539069 0 0
2.131828123 0 0
1.689978712 0 0
2.024021756 0 0
2.138538985 0 0
2.131828136 0 0
1.689978737 0 0
2.024022364 0 0
2.138539827 0 0
2.131829240 0 0
2.131828314 0 0
2.084995194 0 0
2.010381931 0 0
1.903139239 0 0
2.131828123 0 0
2.084994785 0 0
2.010381532 0 0
1.903139080 0 0
2.131828136 0 0
2.084994587 0 0
2.010381348 0 0
1.903139119 0 0
2.131829240 0 0
2.084995339 0 0
2.010382062 0 0
1.903140135 0 0
1.903139239 0 0
1.761420928 0 0
1.595392780 0 0
1.418223471 0 0
1.903139080 0 0
1.761420624 0 0
1.595392464 0 0
1.418223344 0 0
1.903139119 0 0
1.761420531 0 0
1.595392327 0 0
1.418223350 0 0
1.903140135 0 0
1.761421247 0 0
1.595392876 0 0
1.418224069 0 0
1.418223471 0 0
1.240925943 0 0
1.065889635 0 0
0.893347970 0 0
1.418223344 0 0
1.240925723 0 0
1.065889414 0 0
0.893347894 0 0
1.418223350 0 0
1.240925639 0 0
1.065889307 0 0
0.893347905 0 0
1.418224069 0 0
1.240926126 0 0
1.065889652 0 0
0.893348363 0 0
0.893347970 0 0
0.724759896 0 0
0.566485932 0 0
0.426111852 0 0
0.893347894 0 0
0.724759781 0 0
0.566485812 0 0
0.426111816 0 0
0.893347905 0 0
0.724759751 0 0
0.566485752 0 0
0.426111817 0 0
0.893348363 0 0
0.724760059 0 0
0.566485916 0 0
0.426112016 0 0
0.426111852 0 0
0.309337756 0 0
0.214320643 0 0
0.137331635 0 0
0.426111816 0 0
0.309337710 0 0
0.214320595 0 0
0.137331624 0 0
0.426111817 0 0
0.309337698 0 0
0.214320569 0 0
0.137331624 0 0
0.426112016 0 0
0.309337827 0 0
0.214320623 0 0
0.137331685 0 0
0.137331635 0 0
0.077402483 0 0
0.044607250 0 0
0.051780522 0 0
0.137331624 0 0
0.077402477 0 0
0.044607244 0 0
0.051780524 0 0
0.137331624 0 0
0.077402480 0 0
0.044607240 0 0
0.051780525 0 0
0.137331685 0 0
0.077402516 0 0
0.044607236 0 0
0.051780520 0 0
0.051780522 0 0
0.102648668 0 0
0.164505300 0 0
0.195535867 0 0
0.051780524 0 0
0.102648646 0 0
0.164505262 0 0
0.195535764 0 0
0.051780525 0 0
0.102648641 0 0
0.164505263 0 0
0.195535707 0 0
0.051780520 0 0
0.102648654 0 0
0.164505325 0 0
0.195535682 0 0
0.195535867 0 0
0.165572600 0 0
0.091037666 0 0
-0.000000000 0 0
0.195535764 0 0
0.165572600 0 0
0.091037656 0 0
-0.000000000 0 0
0.195535707 0 0
0.165572598 0 0
0.091037652 0 0
0.000000000 0 0
0.195535682 0 0
0.165572623 0 0
0.091037668 0 0
0.000000000 0 0
0.000000000 0 0
0.447836647 0 0
1.097825891 0 0
1.689978737 0 0
-0.000000000 0 0
0.447836617 0 0
1.097825827 0 0
1.689979269 0 0
-0.000000000 0 0
0.447836653 0 0
1.097825710 0 0
1.689978958 0 0
0.000000000 0 0
0.447836639 0 0
1.097825742 0 0
1.689978861 0 0
1.689978737 0 0
2.024022364 0 0
2.138539827 0 0
2.131829240 0 0
1.689979269 0 0
2.024022270 0 0
2.138539223 0 0
2.131827882 0 0
1.689978958 0 0
2.024022053 0 0
2.138539251 0 0
2.131828636 0 0
1.689978861 0 0
2.024022039 0 0
2.138539283 0 0
2.131829095 0 0
2.131829240 0 0
2.084995339 0 0
2.010382062 0 0
1.903140135 0 0
2.131827882 0 0
2.084994610 0 0
2.010381425 0 0
1.903138919 0 0
2.131828636 0 0
2.084994618 0 0
2.010381411 0 0
1.903139603 0 0
2.131829095 0 0
2.084994449 0 0
2.010381264 0 0
1.903140074 0 0
1.903140135 0 0
1.761421247 0 0
1.595392876 0 0
1.418224069 0 0
1.903138919 0 0
1.761420593 0 0
1.595392426 0 0
1.418223168 0 0
1.903139603 0 0
1.761420659 0 0
1.595392394 0 0
1.418223669 0 0
1.903140074 0 0
1.761420659 0 0
1.595392288 0 0
1.418223978 0 0
1.418224069 0 0
1.240926126 0 0
1.065889652 0 0
0.893348363 0 0
1.418223168 0 0
1.240925631 0 0
1.065889368 0 0
0.893347800 0 0
1.418223669 0 0
1.240925673 0 0
1.065889328 0 0
0.893348124 0 0
1.418223978 0 0
1.240925634 0 0
1.065889231 0 0
0.893348342 0 0
0.893348363 0 0
0.724760059 0 0
0.566485916 0 0
0.426112016 0 0
0.893347800 0 0
0.724759742 0 0
0.566485792 0 0
0.426111756 0 0
0.893348124 0 0
0.724759788 0 0
0.566485750 0 0
0.426111910 0 0
0.893348342 0 0
0.724759805 0 0
0.566485688 0 0
0.426112005 0 0
0.426112016 0 0
0.309337827 0 0
0.214320623 0 0
0.137331685 0 0
0.426111756 0 0
0.309337679 0 0
0.214320588 0 0
0.137331608 0 0
0.426111910 0 0
0.309337702 0 0
0.214320568 0 0
0.137331664 0 0
0.426112005 0 0
0.309337707 0 0
0.214320540 0 0
0.137331703 0 0
0.137331685 0 0
0.077402516 0 0
0.044607236 0 0
0.051780520 0 0
0.137331608 0 0
0.077402462 0 0
0.044607230 0 0
0.051780516 0 0
0.137331664 0 0
0.077402470 0 0
0.044607214 0 0
0.051780546 0 0
0.137331703 0 0
0.077402477 0 0