# vtk DataFile Version 2.0
Square plate test
ASCII
DATASET UNSTRUCTURED_GRID
POINTS 196 float
10 0.500000000 0
9.950000000 0.500000000 0
9.554000000 0.500000000 0
9.158000000 0.500000000 0
8.762000000 0.500000000 0
8.366000000 0.500000000 0
7.970000000 0.500000000 0
7.574000000 0.500000000 0
7.178000000 0.500000000 0
6.782000000 0.500000000 0
6.386000000 0.500000000 0
5.990000000 0.500000000 0
5.594000000 0.500000000 0
5.198000000 0.500000000 0
4.802000000 0.500000000 0
4.406000000 0.500000000 0
4.010000000 0.500000000 0
3.614000000 0.500000000 0
3.218000000 0.500000000 0
2.822000000 0.500000000 0
2.426000000 0.500000000 0
2.030000000 0.500000000 0
1.634000000 0.500000000 0
1.238000000 0.500000000 0
0.842000000 0.500000000 0
0.446000000 0.500000000 0
0.050000000 0.500000000 0
0.000000000 0.500000000 0
10.000000000 0.460000000 0
9.950000000 0.460000000 0
9.554000000 0.460000000 0
9.158000000 0.460000000 0
8.762000000 0.460000000 0
8.366000000 0.460000000 0
7.970000000 0.460000000 0
7.574000000 0.460000000 0
7.178000000 0.460000000 0
6.782000000 0.460000000 0
6.386000000 0.460000000 0
5.990000000 0.460000000 0
5.594000000 0.460000000 0
5.198000000 0.460000000 0
4.802000000 0.460000000 0
4.406000000 0.460000000 0
4.010000000 0.460000000 0
3.614000000 0.460000000 0
3.218000000 0.460000000 0
2.822000000 0.460000000 0
2.426000000 0.460000000 0
2.030000000 0.460000000 0
1.634000000 0.460000000 0
1.238000000 0.460000000 0
0.842000000 0.460000000 0
0.446000000 0.460000000 0
0.050000000 0.460000000 0
0.000000000 0.460000000 0
10.000000000 0.230000000 0
9.950000000 0.230000000 0
9.554000000 0.230000000 0
9.158000000 0.230000000 0
8.762000000 0.230000000 0
8.366000000 0.230000000 0
7.970000000 0.230000000 0
7.574000000 0.230000000 0
7.178000000 0.230000000 0
6.782000000 0.230000000 0
6.386000000 0.230000000 0
5.990000000 0.230000000 0
5.594000000 0.230000000 0
5.198000000 0.230000000 0
4.802000000 0.230000000 0
4.406000000 0.230000000 0
4.010000000 0.230000000 0
3.614000000 0.230000000 0
3.218000000 0.230000000 0
2.822000000 0.230000000 0
2.426000000 0.230000000 0
2.030000000 0.230000000 0
1.634000000 0.230000000 0
1.238000000 0.230000000 0
0.842000000 0.230000000 0
0.446000000 0.230000000 0
0.050000000 0.230000000 0
0.000000000 0.230000000 0
10.000000000 0.000000000 0
9.950000000 0.000000000 0
9.554000000 0.000000000 0
9.158000000 0.000000000 0
8.762000000 0.000000000 0
8.366000000 0.000000000 0
7.970000000 0.000000000 0
7.574000000 0.000000000 0
7.178000000 0.000000000 0
6.782000000 0.000000000 0
6.386000000 0.000000000 0
5.990000000 0.000000000 0
5.594000000 0.000000000 0
5.198000000 0.000000000 0
4.802000000 0.000000000 0
4.406000000 0.000000000 0
4.010000000 0.000000000 0
3.614000000 0.000000000 0
3.218000000 0.000000000 0
2.822000000 0.000000000 0
2.426000000 -0.000000000 0
2.030000000 -0.000000000 0
1.634000000 -0.000000000 0
1.238000000 -0.000000000 0
0.842000000 -0.000000000 0
0.446000000 -0.000000000 0
0.050000000 -0.000000000 0
0.000000000 -0.000000000 0
10.000000000 -0.230000000 0
9.950000000 -0.230000000 0
9.554000000 -0.230000000 0
9.158000000 -0.230000000 0
8.762000000 -0.230000000 0
8.366000000 -0.230000000 0
7.970000000 -0.230000000 0
7.574000000 -0.230000000 0
7.178000000 -0.230000000 0
6.782000000 -0.230000000 0
6.386000000 -0.230000000 0
5.990000000 -0.230000000 0
5.594000000 -0.230000000 0
5.198000000 -0.230000000 0
4.802000000 -0.230000000 0
4.406000000 -0.230000000 0
4.010000000 -0.230000000 0
3.614000000 -0.230000000 0
3.218000000 -0.230000000 0
2.822000000 -0.230000000 0
2.426000000 -0.230000000 0
2.030000000 -0.230000000 0
1.634000000 -0.230000000 0
1.238000000 -0.230000000 0
0.842000000 -0.230000000 0
0.446000000 -0.230000000 0
0.050000000 -0.230000000 0
0.000000000 -0.230000000 0
10.000000000 -0.460000000 0
9.950000000 -0.460000000 0
9.554000000 -0.460000000 0
9.158000000 -0.460000000 0
8.762000000 -0.460000000 0
8.366000000 -0.460000000 0
7.970000000 -0.460000000 0
7.574000000 -0.460000000 0
7.178000000 -0.460000000 0
6.782000000 -0.460000000 0
6.386000000 -0.460000000 0
5.990000000 -0.460000000 0
5.594000000 -0.460000000 0
5.198000000 -0.460000000 0
4.802000000 -0.460000000 0
4.406000000 -0.460000000 0
4.010000000 -0.460000000 0
3.614000000 -0.460000000 0
3.218000000 -0.460000000 0
2.822000000 -0.460000000 0
2.426000000 -0.460000000 0
2.030000000 -0.460000000 0
1.634000000 -0.460000000 0
1.238000000 -0.460000000 0
0.842000000 -0.460000000 0
0.446000000 -0.460000000 0
0.050000000 -0.460000000 0
0.000000000 -0.460000000 0
10.000000000 -0.500000000 0
9.950000000 -0.500000000 0
9.554000000 -0.500000000 0
9.158000000 -0.500000000 0
8.762000000 -0.500000000 0
8.366000000 -0.500000000 0
7.970000000 -0.500000000 0
7.574000000 -0.500000000 0
7.178000000 -0.500000000 0
6.782000000 -0.500000000 0
6.386000000 -0.500000000 0
5.990000000 -0.500000000 0
5.594000000 -0.500000000 0
5.198000000 -0.500000000 0
4.802000000 -0.500000000 0
4.406000000 -0.500000000 0
4.010000000 -0.500000000 0
3.614000000 -0.500000000 0
3.218000000 -0.500000000 0
2.822000000 -0.500000000 0
2.426000000 -0.500000000 0
2.030000000 -0.500000000 0
1.634000000 -0.500000000 0
1.238000000 -0.500000000 0
0.842000000 -0.500000000 0
0.446000000 -0.500000000 0
0.050000000 -0.500000000 0
0.000000000 -0.500000000 0

CELLS 162 810
4 0 1 29 28
4 1 2 30 29
4 2 3 31 30
4 3 4 32 31
4 4 5 33 32
4 5 6 34 33
4 6 7 35 34
4 7 8 36 35
4 8 9 37 36
4 9 10 38 37
4 10 11 39 38
4 11 12 40 39
4 12 13 41 40
4 13 14 42 41
4 14 15 43 42
4 15 16 44 43
4 16 17 45 44
4 17 18 46 45
4 18 19 47 46
4 19 20 48 47
4 20 21 49 48
4 21 22 50 49
4 22 23 51 50
4 23 24 52 51
4 24 25 53 52
4 25 26 54 53
4 26 27 55 54
4 28 29 57 56
4 29 30 58 57
4 30 31 59 58
4 31 32 60 59
4 32 33 61 60
4 33 34 62 61
4 34 35 63 62
4 35 36 64 63
4 36 37 65 64
4 37 38 66 65
4 38 39 67 66
4 39 40 68 67
4 40 41 69 68
4 41 42 70 69
4 42 43 71 70
4 43 44 72 71
4 44 45 73 72
4 45 46 74 73
4 46 47 75 74
4 47 48 76 75
4 48 49 77 76
4 49 50 78 77
4 50 51 79 78
4 51 52 80 79
4 52 53 81 80
4 53 54 82 81
4 54 55 83 82
4 56 57 85 84
4 57 58 86 85
4 58 59 87 86
4 59 60 88 87
4 60 61 89 88
4 61 62 90 89
4 62 63 91 90
4 63 64 92 91
4 64 65 93 92
4 65 66 94 93
4 66 67 95 94
4 67 68 96 95
4 68 69 97 96
4 69 70 98 97
4 70 71 99 98
4 71 72 100 99
4 72 73 101 100
4 73 74 102 101
4 74 75 103 102
4 75 76 104 103
4 76 77 105 104
4 77 78 106 105
4 78 79 107 106
4 79 80 108 107
4 80 81 109 108
4 81 82 110 109
4 82 83 111 110
4 84 85 113 112
4 85 86 114 113
4 86 87 115 114
4 87 88 116 115
4 88 89 117 116
4 89 90 118 117
4 90 91 119 118
4 91 92 120 119
4 92 93 121 120
4 93 94 122 121
4 94 95 123 122
4 95 96 124 123
4 96 97 125 124
4 97 98 126 125
4 98 99 127 126
4 99 100 128 127
4 100 101 129 128
4 101 102 130 129
4 102 103 131 130
4 103 104 132 131
4 104 105 133 132
4 105 106 134 133
4 106 107 135 134
4 107 108 136 135
4 108 109 137 136
4 109 110 138 137
4 110 111 139 138
4 112 113 141 140
4 113 114 142 141
4 114 115 143 142
4 115 116 144 143
4 116 117 145 144
4 117 118 146 145
4 118 119 147 146
4 119 120 148 147
4 120 121 149 148
4 121 122 150 149
4 122 123 151 150
4 123 124 152 151
4 124 125 153 152
4 125 126 154 153
4 126 127 155 154
4 127 128 156 155
4 128 129 157 156
4 129 130 158 157
4 130 131 159 158
4 131 132 160 159
4 132 133 161 160
4 133 134 162 161
4 134 135 163 162
4 135 136 164 163
4 136 137 165 164
4 137 138 166 165
4 138 139 167 166
4 140 141 169 168
4 141 142 170 169
4 142 143 171 170
4 143 144 172 171
4 144 145 173 172
4 145 146 174 173
4 146 147 175 174
4 147 148 176 175
4 148 149 177 176
4 149 150 178 177
4 150 151 179 178
4 151 152 180 179
4 152 153 181 180
4 153 154 182 181
4 154 155 183 182
4 155 156 184 183
4 156 157 185 184
4 157 158 186 185
4 158 159 187 186
4 159 160 188 187
4 160 161 189 188
4 161 162 190 189
4 162 163 191 190
4 163 164 192 191
4 164 165 193 192
4 165 166 194 193
4 166 167 195 194

CELL_TYPES 162
9
9
9
9
9
9
9
9
9
9
9
9
9
9
9
9
9
9
9
9
9
9
9
9
9
9
9
9
9
9
9
9
9
9
9
9
9
9
9
9
9
9
9
9
9
9
9
9
9
9
9
9
9
9
9
9
9
9
9
9
9
9
9
9
9
9
9
9
9
9
9
9
9
9
9
9
9
9
9
9
9
9
9
9
9
9
9
9
9
9
9
9
9
9
9
9
9
9
9
9
9
9
9
9
9
9
9
9
9
9
9
9
9
9
9
9
9
9
9
9
9
9
9
9
9
9
9
9
9
9
9
9
9
9
9
9
9
9
9
9
9
9
9
9
9
9
9
9
9
9
9
9
9
9
9
9
9
9
9
9
9
9
POINT_DATA 196
VECTORS y float
0 0 1.000000000
0 0 0.881585200
0 0 0.790521839
0 0 0.714648334
0 0 0.595804316
0 0 0.519916480
0 0 0.440254027
0 0 0.394156758
0 0 0.356023376
0 0 0.344289168
0 0 0.346023602
0 0 0.370274494
0 0 0.410850836
0 0 0.471820853
0 0 0.550763931
0 0 0.648737857
0 0 0.765923660
0 0 0.900880301
0 0 1.056478694
0 0 1.228081633
0 0 1.422644821
0 0 1.630091077
0 0 1.864901929
0 0 2.106716956
0 0 2.385502290
0 0 2.661003138
0 0 2.998077703
0 0 3.000000000
0 0 1.000000000
0 0 0.881585291
0 0 0.790521431
0 0 0.714648664
0 0 0.595804351
0 0 0.519916631
0 0 0.440254092
0 0 0.394156852
0 0 0.356023440
0 0 0.344289242
0 0 0.346023670
0 0 0.370274571
0 0 0.410850918
0 0 0.471820949
0 0 0.550764043
0 0 0.648737987
0 0 0.765923819
0 0 0.900880477
0 0 1.056478922
0 0 1.228081857
0 0 1.422645158
0 0 1.630091316
0 0 1.864902484
0 0 2.106717041
0 0 2.385503502
0 0 2.661001688
0 0 2.998078060
0 0 3.000000000
0 0 1.000000000
0 0 0.881585172
0 0 0.790522049
0 0 0.714648790
0 0 0.595804537
0 0 0.519916774
0 0 0.440254217
0 0 0.394156966
0 0 0.356023542
0 0 0.344289341
0 0 0.346023769
0 0 0.370274677
0 0 0.410851036
0 0 0.471821084
0 0 0.550764198
0 0 0.648738173
0 0 0.765924031
0 0 0.900880739
0 0 1.056479203
0 0 1.228082231
0 0 1.422645499
0 0 1.630091885
0 0 1.864902789
0 0 2.106718045
0 0 2.385503300
0 0 2.661004702
0 0 2.998076720
0 0 3.000000000
0 0 1.000000000
0 0 0.881584912
0 0 0.790521469
0 0 0.714650372
0 0 0.595805056
0 0 0.519917691
0 0 0.440254705
0 0 0.394157595
0 0 0.356023982
0 0 0.344289855
0 0 0.346024225
0 0 0.370275207
0 0 0.410851596
0 0 0.471821746
0 0 0.550764961
0 0 0.648739077
0 0 0.765925101
0 0 0.900881986
0 0 1.056480694
0 0 1.228083909
0 0 1.422647559
0 0 1.630093999
0 0 1.864905746
0 0 2.106720176
0 0 2.385508616
0 0 2.661002243
0 0 2.998078375
0 0 3.000000000
0 0 1.000000000
0 0 0.881585172
0 0 0.790522049
0 0 0.714648790
0 0 0.595804537
0 0 0.519916774
0 0 0.440254217
0 0 0.394156966
0 0 0.356023542
0 0 0.344289341
0 0 0.346023769
0 0 0.370274677
0 0 0.410851036
0 0 0.471821084
0 0 0.550764198
0 0 0.648738173
0 0 0.765924031
0 0 0.900880739
0 0 1.056479203
0 0 1.228082231
0 0 1.422645499
0 0 1.630091885
0 0 1.864902789
0 0 2.106718045
0 0 2.385503300
0 0 2.661004702
0 0 2.998076720
0 0 3.000000000
0 0 1.000000000
0 0 0.881585291
0 0 0.790521431
0 0 0.714648664
0 0 0.595804351
0 0 0.519916631
0 0 0.440254092
0 0 0.394156852
0 0 0.356023440
0 0 0.344289242
0 0 0.346023670
0 0 0.370274571
0 0 0.410850918
0 0 0.471820949
0 0 0.550764043
0 0 0.648737987
0 0 0.765923819
0 0 0.900880477
0 0 1.056478922
0 0 1.228081857
0 0 1.422645158
0 0 1.630091317
0 0 1.864902484
0 0 2.106717041
0 0 2.385503502
0 0 2.661001688
0 0 2.998078060
0 0 3.000000000
0 0 1.000000000
0 0 0.881585200
0 0 0.790521839
0 0 0.714648334
0 0 0.595804316
0 0 0.519916480
0 0 0.440254027
0 0 0.394156758
0 0 0.356023376
0 0 0.344289168
0 0 0.346023602
0 0 0.370274494
0 0 0.410850836
0 0 0.471820853
0 0 0.550763931
0 0 0.648737857
0 0 0.765923660
0 0 0.900880301
0 0 1.056478694
0 0 1.228081633
0 0 1.422644821
0 0 1.630091077
0 0 1.864901929
0 0 2.106716956
0 0 2.385502290
0 0 2.661003138
0 0 2.998077703
0 0 3.000000000
VECTORS u float
0 0 0.000000000
0 0 0.029181018
0 0 0.280020762
0 0 0.252734021
0 0 0.239863260
0 0 0.186493632
0 0 0.146628058
0 0 0.094817793
0 0 0.050897971
0 0 0.000445837
0 0 -0.044306133
0 0 -0.094729352
0 0 -0.138857937
0 0 -0.190654256
0 0 -0.232509708
0 0 -0.287747764
0 0 -0.324589613
0 0 -0.387002917
0 0 -0.413668102
0 0 -0.490465802
0 0 -0.496891798
0 0 -0.602321317
0 0 -0.568930757
0 0 -0.732628141
0 0 -0.621245338
0 0 -0.945567131
0 0 -0.641391948
0 0 0.000000000
0 0 -0.000000000
0 0 0.029181067
0 0 0.280020576
0 0 0.252734179
0 0 0.239863281
0 0 0.186493702
0 0 0.146628087
0 0 0.094817826
0 0 0.050897987
0 0 0.000445846
0 0 -0.044306134
0 0 -0.094729365
0 0 -0.138857954
0 0 -0.190654288
0 0 -0.232509739
0 0 -0.287747813
0 0 -0.324589655
0 0 -0.387002984
0 0 -0.413668151
0 0 -0.490465887
0 0 -0.496891855
0 0 -0.602321410
0 0 -0.568930838
0 0 -0.732628197
0 0 -0.621245553
0 0 -0.945566784
0 0 -0.641392045
0 0 -0.000000000
0 0 0.000000000
0 0 0.029180865
0 0 0.280020858
0 0 0.252734087
0 0 0.239863343
0 0 0.186493679
0 0 0.146628104
0 0 0.094817809
0 0 0.050897973
0 0 0.000445816
0 0 -0.044306180
0 0 -0.094729418
0 0 -0.138858038
0 0 -0.190654370
0 0 -0.232509871
0 0 -0.287747927
0 0 -0.324589847
0 0 -0.387003130
0 0 -0.413668418
0 0 -0.490466064
0 0 -0.496892207
0 0 -0.602321629
0 0 -0.568931262
0 0 -0.732628510
0 0 -0.621245955
0 0 -0.945567474
0 0 -0.641392017
0 0 0.000000000
0 0 -0.000000000
0 0 0.029180849
0 0 0.280020982
0 0 0.252734524
0 0 0.239863729
0 0 0.186493931
0 0 0.146628355
0 0 0.094817936
0 0 0.050898077
0 0 0.000445815
0 0 -0.044306213
0 0 -0.094729551
0 0 -0.138858196
0 0 -0.190654641
0 0 -0.232510139
0 0 -0.287748346
0 0 -0.324590208
0 0 -0.387003713
0 0 -0.413668843
0 0 -0.490466837
0 0 -0.496892664
0 0 -0.602322608
0 0 -0.568931770
0 0 -0.732629552
0 0 -0.621246941
0 0 -0.945567226
0 0 -0.641393585
0 0 -0.000000000
0 0 0.000000000
0 0 0.029180865
0 0 0.280020858
0 0 0.252734087
0 0 0.239863343
0 0 0.186493679
0 0 0.146628104
0 0 0.094817809
0 0 0.050897973
0 0 0.000445816
0 0 -0.044306180
0 0 -0.094729418
0 0 -0.138858038
0 0 -0.190654370
0 0 -0.232509871
0 0 -0.287747927
0 0 -0.324589847
0 0 -0.387003130
0 0 -0.413668418
0 0 -0.490466064
0 0 -0.496892207
0 0 -0.602321629
0 0 -0.568931262
0 0 -0.732628510
0 0 -0.621245955
0 0 -0.945567474
0 0 -0.641392017
0 0 0.000000000
0 0 -0.000000000
0 0 0.029181067
0 0 0.280020576
0 0 0.252734179
0 0 0.239863281
0 0 0.186493702
0 0 0.146628087
0 0 0.094817826
0 0 0.050897987
0 0 0.000445846
0 0 -0.044306134
0 0 -0.094729365
0 0 -0.138857954
0 0 -0.190654288
0 0 -0.232509739
0 0 -0.287747813
0 0 -0.324589655
0 0 -0.387002984
0 0 -0.413668151
0 0 -0.490465886
0 0 -0.496891855
0 0 -0.602321409
0 0 -0.568930838
0 0 -0.732628197
0 0 -0.621245553
0 0 -0.945566784
0 0 -0.641392045
0 0 -0.000000000
0 0 0.000000000
0 0 0.029181018
0 0 0.280020762
0 0 0.252734021
0 0 0.239863260
0 0 0.186493632
0 0 0.146628058
0 0 0.094817793
0 0 0.050897971
0 0 0.000445837
0 0 -0.044306133
0 0 -0.094729352
0 0 -0.138857937
0 0 -0.190654256
0 0 -0.232509708
0 0 -0.287747764
0 0 -0.324589613
0 0 -0.387002917
0 0 -0.413668102
0 0 -0.490465802
0 0 -0.496891799
0 0 -0.602321317
0 0 -0.568930757
0 0 -0.732628141
0 0 -0.621245338
0 0 -0.945567131
0 0 -0.641391948
0 0 0.000000000
VECTORS lamda float
0 0 0.000000000
0 0 0.002918102
0 0 0.028002076
0 0 0.025273402
0 0 0.023986326
0 0 0.018649363
0 0 0.014662806
0 0 0.009481779
0 0 0.005089797
0 0 0.000044584
0 0 -0.004430613
0 0 -0.009472935
0 0 -0.013885794
0 0 -0.019065426
0 0 -0.023250971
0 0 -0.028774776
0 0 -0.032458961
0 0 -0.038700292
0 0 -0.041366810
0 0 -0.049046580
0 0 -0.049689180
0 0 -0.060232132
0 0 -0.056893076
0 0 -0.073262814
0 0 -0.062124534
0 0 -0.094556713
0 0 -0.064139195
0 0 0.000000000
0 0 0.000000000
0 0 0.002918107
0 0 0.028002058
0 0 0.025273418
0 0 0.023986328
0 0 0.018649370
0 0 0.014662809
0 0 0.009481783
0 0 0.005089799
0 0 0.000044585
0 0 -0.004430613
0 0 -0.009472936
0 0 -0.013885795
0 0 -0.019065429
0 0 -0.023250974
0 0 -0.028774781
0 0 -0.032458965
0 0 -0.038700298
0 0 -0.041366815
0 0 -0.049046589
0 0 -0.049689185
0 0 -0.060232141
0 0 -0.056893084
0 0 -0.073262820
0 0 -0.062124555
0 0 -0.094556678
0 0 -0.064139204
0 0 0.000000000
0 0 0.000000000
0 0 0.002918086
0 0 0.028002086
0 0 0.025273409
0 0 0.023986334
0 0 0.018649368
0 0 0.014662810
0 0 0.009481781
0 0 0.005089797
0 0 0.000044582
0 0 -0.004430618
0 0 -0.009472942
0 0 -0.013885804
0 0 -0.019065437
0 0 -0.023250987
0 0 -0.028774793
0 0 -0.032458985
0 0 -0.038700313
0 0 -0.041366842
0 0 -0.049046606
0 0 -0.049689221
0 0 -0.060232163
0 0 -0.056893126
0 0 -0.073262851
0 0 -0.062124596
0 0 -0.094556747
0 0 -0.064139202
0 0 0.000000000
0 0 0.000000000
0 0 0.002918085
0 0 0.028002098
0 0 0.025273452
0 0 0.023986373
0 0 0.018649393
0 0 0.014662836
0 0 0.009481794
0 0 0.005089808
0 0 0.000044581
0 0 -0.004430621
0 0 -0.009472955
0 0 -0.013885820
0 0 -0.019065464
0 0 -0.023251014
0 0 -0.028774835
0 0 -0.032459021
0 0 -0.038700371
0 0 -0.041366884
0 0 -0.049046684
0 0 -0.049689266
0 0 -0.060232261
0 0 -0.056893177
0 0 -0.073262955
0 0 -0.062124694
0 0 -0.094556723
0 0 -0.064139358
0 0 0.000000000
0 0 0.000000000
0 0 0.002918086
0 0 0.028002086
0 0 0.025273409
0 0 0.023986334
0 0 0.018649368
0 0 0.014662810
0 0 0.009481781
0 0 0.005089797
0 0 0.000044582
0 0 -0.004430618
0 0 -0.009472942
0 0 -0.013885804
0 0 -0.019065437
0 0 -0.023250987
0 0 -0.028774793
0 0 -0.032458985
0 0 -0.038700313
0 0 -0.041366842
0 0 -0.049046606
0 0 -0.049689221
0 0 -0.060232163
0 0 -0.056893126
0 0 -0.073262851
0 0 -0.062124596
0 0 -0.094556747
0 0 -0.064139202
0 0 0.000000000
0 0 0.000000000
0 0 0.002918107
0 0 0.028002058
0 0 0.025273418
0 0 0.023986328
0 0 0.018649370
0 0 0.014662809
0 0 0.009481783
0 0 0.005089799
0 0 0.000044585
0 0 -0.004430613
0 0 -0.009472936
0 0 -0.013885795
0 0 -0.019065429
0 0 -0.023250974
0 0 -0.028774781
0 0 -0.032458966
0 0 -0.038700298
0 0 -0.041366815
0 0 -0.049046589
0 0 -0.049689186
0 0 -0.060232141
0 0 -0.056893084
0 0 -0.073262820
0 0 -0.062124555
0 0 -0.094556678
0 0 -0.064139204
0 0 0.000000000
0 0 0.000000000
0 0 0.002918102
0 0 0.028002076
0 0 0.025273402
0 0 0.023986326
0 0 0.018649363
0 0 0.014662806
0 0 0.009481779
0 0 0.005089797
0 0 0.000044584
0 0 -0.004430613
0 0 -0.009472935
0 0 -0.013885794
0 0 -0.019065426
0 0 -0.023250971
0 0 -0.028774776
0 0 -0.032458961
0 0 -0.038700292
0 0 -0.041366810
0 0 -0.049046580
0 0 -0.049689180
0 0 -0.060232132
0 0 -0.056893076
0 0 -0.073262814
0 0 -0.062124534
0 0 -0.094556713
0 0 -0.064139195
0 0 0.000000000
