# vtk DataFile Version 2.0
Hex test
ASCII
DATASET UNSTRUCTURED_GRID
POINTS 16000 float
10 0.500000000 0.000000000
9.950453704 0.500000000 0.000000000
9.902962963 0.500000000 0.000000000
9.859250000 0.500000000 0.000000000
10.000000000 0.458506185 0.000000000
9.950453704 0.458506185 0.000000000
9.902962963 0.458506185 0.000000000
9.859250000 0.458506185 0.000000000
10.000000000 0.416049481 0.000000000
9.950453704 0.416049481 0.000000000
9.902962963 0.416049481 0.000000000
9.859250000 0.416049481 0.000000000
10.000000000 0.375667000 0.000000000
9.950453704 0.375667000 0.000000000
9.902962963 0.375667000 0.000000000
9.859250000 0.375667000 0.000000000
9.859250000 0.500000000 0.000000000
9.820444444 0.500000000 0.000000000
9.785305556 0.500000000 0.000000000
9.752000000 0.500000000 0.000000000
9.859250000 0.458506185 0.000000000
9.820444444 0.458506185 0.000000000
9.785305556 0.458506185 0.000000000
9.752000000 0.458506185 0.000000000
9.859250000 0.416049481 0.000000000
9.820444444 0.416049481 0.000000000
9.785305556 0.416049481 0.000000000
9.752000000 0.416049481 0.000000000
9.859250000 0.375667000 0.000000000
9.820444444 0.375667000 0.000000000
9.785305556 0.375667000 0.000000000
9.752000000 0.375667000 0.000000000
9.752000000 0.500000000 0.000000000
9.719000000 0.500000000 0.000000000
9.686000000 0.500000000 0.000000000
9.653000000 0.500000000 0.000000000
9.752000000 0.458506185 0.000000000
9.719000000 0.458506185 0.000000000
9.686000000 0.458506185 0.000000000
9.653000000 0.458506185 0.000000000
9.752000000 0.416049481 0.000000000
9.719000000 0.416049481 0.000000000
9.686000000 0.416049481 0.000000000
9.653000000 0.416049481 0.000000000
9.752000000 0.375667000 0.000000000
9.719000000 0.375667000 0.000000000
9.686000000 0.375667000 0.000000000
9.653000000 0.375667000 0.000000000
9.653000000 0.500000000 0.000000000
9.620000000 0.500000000 0.000000000
9.587000000 0.500000000 0.000000000
9.554000000 0.500000000 0.000000000
9.653000000 0.458506185 0.000000000
9.620000000 0.458506185 0.000000000
9.587000000 0.458506185 0.000000000
9.554000000 0.458506185 0.000000000
9.653000000 0.416049481 0.000000000
9.620000000 0.416049481 0.000000000
9.587000000 0.416049481 0.000000000
9.554000000 0.416049481 0.000000000
9.653000000 0.375667000 0.000000000
9.620000000 0.375667000 0.000000000
9.587000000 0.375667000 0.000000000
9.554000000 0.375667000 0.000000000
9.554000000 0.500000000 0.000000000
9.521000000 0.500000000 0.000000000
9.488000000 0.500000000 0.000000000
9.455000000 0.500000000 0.000000000
9.554000000 0.458506185 0.000000000
9.521000000 0.458506185 0.000000000
9.488000000 0.458506185 0.000000000
9.455000000 0.458506185 0.000000000
9.554000000 0.416049481 0.000000000
9.521000000 0.416049481 0.000000000
9.488000000 0.416049481 0.000000000
9.455000000 0.416049481 0.000000000
9.554000000 0.375667000 0.000000000
9.521000000 0.375667000 0.000000000
9.488000000 0.375667000 0.000000000
9.455000000 0.375667000 0.000000000
9.455000000 0.500000000 0.000000000
9.422000000 0.500000000 0.000000000
9.389000000 0.500000000 0.000000000
9.356000000 0.500000000 0.000000000
9.455000000 0.458506185 0.000000000
9.422000000 0.458506185 0.000000000
9.389000000 0.458506185 0.000000000
9.356000000 0.458506185 0.000000000
9.455000000 0.416049481 0.000000000
9.422000000 0.416049481 0.000000000
9.389000000 0.416049481 0.000000000
9.356000000 0.416049481 0.000000000
9.455000000 0.375667000 0.000000000
9.422000000 0.375667000 0.000000000
9.389000000 0.375667000 0.000000000
9.356000000 0.375667000 0.000000000
9.356000000 0.500000000 0.000000000
9.323000000 0.500000000 0.000000000
9.290000000 0.500000000 0.000000000
9.257000000 0.500000000 0.000000000
9.356000000 0.458506185 0.000000000
9.323000000 0.458506185 0.000000000
9.290000000 0.458506185 0.000000000
9.257000000 0.458506185 0.000000000
9.356000000 0.416049481 0.000000000
9.323000000 0.416049481 0.000000000
9.290000000 0.416049481 0.000000000
9.257000000 0.416049481 0.000000000
9.356000000 0.375667000 0.000000000
9.323000000 0.375667000 0.000000000
9.290000000 0.375667000 0.000000000
9.257000000 0.375667000 0.000000000
9.257000000 0.500000000 0.000000000
9.224000000 0.500000000 0.000000000
9.191000000 0.500000000 0.000000000
9.158000000 0.500000000 0.000000000
9.257000000 0.458506185 0.000000000
9.224000000 0.458506185 0.000000000
9.191000000 0.458506185 0.000000000
9.158000000 0.458506185 0.000000000
9.257000000 0.416049481 0.000000000
9.224000000 0.416049481 0.000000000
9.191000000 0.416049481 0.000000000
9.158000000 0.416049481 0.000000000
9.257000000 0.375667000 0.000000000
9.224000000 0.375667000 0.000000000
9.191000000 0.375667000 0.000000000
9.158000000 0.375667000 0.000000000
9.158000000 0.500000000 0.000000000
9.125000000 0.500000000 0.000000000
9.092000000 0.500000000 0.000000000
9.059000000 0.500000000 0.000000000
9.158000000 0.458506185 0.000000000
9.125000000 0.458506185 0.000000000
9.092000000 0.458506185 0.000000000
9.059000000 0.458506185 0.000000000
9.158000000 0.416049481 0.000000000
9.125000000 0.416049481 0.000000000
9.092000000 0.416049481 0.000000000
9.059000000 0.416049481 0.000000000
9.158000000 0.375667000 0.000000000
9.125000000 0.375667000 0.000000000
9.092000000 0.375667000 0.000000000
9.059000000 0.375667000 0.000000000
9.059000000 0.500000000 0.000000000
9.026000000 0.500000000 0.000000000
8.993000000 0.500000000 0.000000000
8.960000000 0.500000000 0.000000000
9.059000000 0.458506185 0.000000000
9.026000000 0.458506185 0.000000000
8.993000000 0.458506185 0.000000000
8.960000000 0.458506185 0.000000000
9.059000000 0.416049481 0.000000000
9.026000000 0.416049481 0.000000000
8.993000000 0.416049481 0.000000000
8.960000000 0.416049481 0.000000000
9.059000000 0.375667000 0.000000000
9.026000000 0.375667000 0.000000000
8.993000000 0.375667000 0.000000000
8.960000000 0.375667000 0.000000000
8.960000000 0.500000000 0.000000000
8.927000000 0.500000000 0.000000000
8.894000000 0.500000000 0.000000000
8.861000000 0.500000000 0.000000000
8.960000000 0.458506185 0.000000000
8.927000000 0.458506185 0.000000000
8.894000000 0.458506185 0.000000000
8.861000000 0.458506185 0.000000000
8.960000000 0.416049481 0.000000000
8.927000000 0.416049481 0.000000000
8.894000000 0.416049481 0.000000000
8.861000000 0.416049481 0.000000000
8.960000000 0.375667000 0.000000000
8.927000000 0.375667000 0.000000000
8.894000000 0.375667000 0.000000000
8.861000000 0.375667000 0.000000000
8.861000000 0.500000000 0.000000000
8.828000000 0.500000000 0.000000000
8.795000000 0.500000000 0.000000000
8.762000000 0.500000000 0.000000000
8.861000000 0.458506185 0.000000000
8.828000000 0.458506185 0.000000000
8.795000000 0.458506185 0.000000000
8.762000000 0.458506185 0.000000000
8.861000000 0.416049481 0.000000000
8.828000000 0.416049481 0.000000000
8.795000000 0.416049481 0.000000000
8.762000000 0.416049481 0.000000000
8.861000000 0.375667000 0.000000000
8.828000000 0.375667000 0.000000000
8.795000000 0.375667000 0.000000000
8.762000000 0.375667000 0.000000000
8.762000000 0.500000000 0.000000000
8.729000000 0.500000000 0.000000000
8.696000000 0.500000000 0.000000000
8.663000000 0.500000000 0.000000000
8.762000000 0.458506185 0.000000000
8.729000000 0.458506185 0.000000000
8.696000000 0.458506185 0.000000000
8.663000000 0.458506185 0.000000000
8.762000000 0.416049481 0.000000000
8.729000000 0.416049481 0.000000000
8.696000000 0.416049481 0.000000000
8.663000000 0.416049481 0.000000000
8.762000000 0.375667000 0.000000000
8.729000000 0.375667000 0.000000000
8.696000000 0.375667000 0.000000000
8.663000000 0.375667000 0.000000000
8.663000000 0.500000000 0.000000000
8.630000000 0.500000000 0.000000000
8.597000000 0.500000000 0.000000000
8.564000000 0.500000000 0.000000000
8.663000000 0.458506185 0.000000000
8.630000000 0.458506185 0.000000000
8.597000000 0.458506185 0.000000000
8.564000000 0.458506185 0.000000000
8.663000000 0.416049481 0.000000000
8.630000000 0.416049481 0.000000000
8.597000000 0.416049481 0.000000000
8.564000000 0.416049481 0.000000000
8.663000000 0.375667000 0.000000000
8.630000000 0.375667000 0.000000000
8.597000000 0.375667000 0.000000000
8.564000000 0.375667000 0.000000000
8.564000000 0.500000000 0.000000000
8.531000000 0.500000000 0.000000000
8.498000000 0.500000000 0.000000000
8.465000000 0.500000000 0.000000000
8.564000000 0.458506185 0.000000000
8.531000000 0.458506185 0.000000000
8.498000000 0.458506185 0.000000000
8.465000000 0.458506185 0.000000000
8.564000000 0.416049481 0.000000000
8.531000000 0.416049481 0.000000000
8.498000000 0.416049481 0.000000000
8.465000000 0.416049481 0.000000000
8.564000000 0.375667000 0.000000000
8.531000000 0.375667000 0.000000000
8.498000000 0.375667000 0.000000000
8.465000000 0.375667000 0.000000000
8.465000000 0.500000000 0.000000000
8.432000000 0.500000000 0.000000000
8.399000000 0.500000000 0.000000000
8.366000000 0.500000000 0.000000000
8.465000000 0.458506185 0.000000000
8.432000000 0.458506185 0.000000000
8.399000000 0.458506185 0.000000000
8.366000000 0.458506185 0.000000000
8.465000000 0.416049481 0.000000000
8.432000000 0.416049481 0.000000000
8.399000000 0.416049481 0.000000000
8.366000000 0.416049481 0.000000000
8.465000000 0.375667000 0.000000000
8.432000000 0.375667000 0.000000000
8.399000000 0.375667000 0.000000000
8.366000000 0.375667000 0.000000000
8.366000000 0.500000000 0.000000000
8.333000000 0.500000000 0.000000000
8.300000000 0.500000000 0.000000000
8.267000000 0.500000000 0.000000000
8.366000000 0.458506185 0.000000000
8.333000000 0.458506185 0.000000000
8.300000000 0.458506185 0.000000000
8.267000000 0.458506185 0.000000000
8.366000000 0.416049481 0.000000000
8.333000000 0.416049481 0.000000000
8.300000000 0.416049481 0.000000000
8.267000000 0.416049481 0.000000000
8.366000000 0.375667000 0.000000000
8.333000000 0.375667000 0.000000000
8.300000000 0.375667000 0.000000000
8.267000000 0.375667000 0.000000000
8.267000000 0.500000000 0.000000000
8.234000000 0.500000000 0.000000000
8.201000000 0.500000000 0.000000000
[...]
POINT_DATA 16000
VECTORS y float
1.000000000 0 0
0.935410330 0 0
0.887447735 0 0
0.855248498 0 0
1.000000000 0 0
0.935410844 0 0
0.887448609 0 0
0.855250001 0 0
1.000000000 0 0
0.935410685 0 0
0.887448189 0 0
0.855249306 0 0
1.000000000 0 0
0.935410174 0 0
0.887447167 0 0
0.855247373 0 0
0.855248498 0 0
0.837428230 0 0
0.830519820 0 0
0.830535486 0 0
0.855250001 0 0
0.837430699 0 0
0.830523288 0 0
0.830539304 0 0
0.855249306 0 0
0.837429935 0 0
0.830522548 0 0
0.830538494 0 0
0.855247373 0 0
0.837427946 0 0
0.830520546 0 0
0.830536840 0 0
0.830535486 0 0
0.833836490 0 0
0.838190320 0 0
0.841713494 0 0
0.830539304 0 0
0.833840240 0 0
0.838193290 0 0
0.841715603 0 0
0.830538494 0 0
0.833840000 0 0
0.838193312 0 0
0.841715554 0 0
0.830536840 0 0
0.833838525 0 0
0.838192441 0 0
0.841715446 0 0
0.841713494 0 0
0.842800816 0 0
0.840970203 0 0
0.836017847 0 0
0.841715603 0 0
0.842803134 0 0
0.840972872 0 0
0.836020609 0 0
0.841715554 0 0
0.842803538 0 0
0.840973370 0 0
0.836020845 0 0
0.841715446 0 0
0.842803420 0 0
0.840973287 0 0
0.836020979 0 0
0.836017847 0 0
0.827902545 0 0
0.817243496 0 0
0.804822532 0 0
0.836020609 0 0
0.827905542 0 0
0.817246271 0 0
0.804824806 0 0
0.836020845 0 0
0.827906052 0 0
0.817246729 0 0
0.804824900 0 0
0.836020979 0 0
0.827905932 0 0
0.817246614 0 0
0.804825029 0 0
0.804822532 0 0
0.791398536 0 0
0.777648322 0 0
0.764225807 0 0
0.804824806 0 0
0.791400861 0 0
0.777650564 0 0
0.764227761 0 0
0.804824900 0 0
0.791401149 0 0
0.777650775 0 0
0.764227623 0 0
0.804825029 0 0
0.791400996 0 0
0.777650535 0 0
0.764227548 0 0
0.764225807 0 0
0.751685833 0 0
0.740196255 0 0
0.729825904 0 0
0.764227761 0 0
0.751687899 0 0
0.740198212 0 0
0.729827554 0 0
0.764227623 0 0
0.751687968 0 0
0.740198242 0 0
0.729827295 0 0
0.764227548 0 0
0.751687627 0 0
0.740197874 0 0
0.729827146 0 0
0.729825904 0 0
0.720584481 0 0
0.712254043 0 0
0.704557553 0 0
0.729827554 0 0
0.720586267 0 0
0.712255792 0 0
0.704559073 0 0
0.729827295 0 0
0.720586249 0 0
0.712255776 0 0
0.704558811 0 0
0.729827146 0 0
0.720585892 0 0
0.712255422 0 0
0.704558689 0 0
0.704557553 0 0
0.697225508 0 0
0.690027061 0 0
0.682738928 0 0
0.704559073 0 0
0.697227190 0 0
0.690028711 0 0
0.682740349 0 0
0.704558811 0 0
0.697227185 0 0
0.690028721 0 0
0.682740128 0 0
0.704558689 0 0
0.697226878 0 0
0.690028433 0 0
0.682740071 0 0
0.682738928 0 0
0.675171941 0 0
0.667281644 0 0
0.659057726 0 0
0.682740349 0 0
0.675173516 0 0
0.667283187 0 0
0.659059046 0 0
0.682740128 0 0
0.675173541 0 0
0.667283221 0 0
0.659058846 0 0
0.682740071 0 0
0.675173303 0 0
0.667282991 0 0
0.659058828 0 0
0.659057726 0 0
0.650508751 0 0
0.641726746 0 0
0.632822644 0 0
0.659059046 0 0
0.650510213 0 0
0.641728169 0 0
0.632823844 0 0
0.659058846 0 0
0.650510241 0 0
0.641728197 0 0
0.632823641 0 0
0.659058828 0 0
0.650510038 0 0
0.641727993 0 0
0.632823634 0 0
0.632822644 0 0
0.623902027 0 0
0.615056733 0 0
0.606373285 0 0
0.632823844 0 0
0.623903359 0 0
0.615058028 0 0
0.606374369 0 0
0.632823641 0 0
0.623903371 0 0
0.615058038 0 0
0.606374158 0 0
0.632823634 0 0
0.623903181 0 0
0.615057844 0 0
0.606374152 0 0
0.606373285 0 0
0.597923649 0 0
0.589728918 0 0
0.581795665 0 0
0.606374369 0 0
0.597924863 0 0
0.589730101 0 0
0.581796651 0 0
0.606374158 0 0
0.597924860 0 0
0.589730100 0 0
0.581796441 0 0
0.606374152 0 0
0.597924681 0 0
0.589729920 0 0
0.581796444 0 0
0.581795665 0 0
0.574121866 0 0
0.566678171 0 0
0.559426669 0 0
0.581796651 0 0
0.574122981 0 0
0.566679260 0 0
0.559427572 0 0
0.581796441 0 0
0.574122975 0 0
0.566679259 0 0
0.559427372 0 0
0.581796444 0 0
0.574122815 0 0
0.566679100 0 0
0.559427392 0 0
0.559426669 0 0
0.552329819 0 0
0.545358349 0 0
0.538483387 0 0
0.559427572 0 0
0.552330849 0 0
0.545359356 0 0
0.538484216 0 0
0.559427372 0 0
0.552330847 0 0
0.545359358 0 0
0.538484028 0 0
0.559427392 0 0
0.552330710 0 0
0.545359224 0 0
0.538484064 0 0
0.538483387 0 0
0.531679766 0 0
0.524943654 0 0
0.518274948 0 0
0.538484216 0 0
0.531680718 0 0
0.524944583 0 0
0.518275706 0 0
0.538484028 0 0
0.531680719 0 0
0.524944588 0 0
0.518275526 0 0
0.538484064 0 0
0.531680604 0 0
0.524944473 0 0
0.518275575 0 0
0.518274948 0 0
0.511675067 0 0
0.505157787 0 0
0.498738430 0 0
0.518275706 0 0
0.511675944 0 0
0.505158643 0 0
0.498739121 0 0
0.518275526 0 0
0.511675945 0 0
0.505158646 0 0
0.498738946 0 0
0.518275575 0 0
0.511675847 0 0
0.505158547 0 0
0.498739003 0 0
0.498738430 0 0
0.492430639 0 0
0.486247392 0 0
0.480200012 0 0
0.498739121 0 0
0.492431445 0 0
0.486248178 0 0
0.480200641 0 0
0.498738946 0 0
0.492431444 0 0
0.486248180 0 0
0.480200472 0 0
0.498739003 0 0
0.492431359 0 0
0.486248094 0 0
0.480200536 0 0
0.480200012 0 0
0.474297049 0 0
0.468541757 0 0
0.462934641 0 0
0.480200641 0 0
0.474297789 0 0
0.468542481 0 0
0.462935215 0 0
0.480200472 0 0
0.474297788 0 0
0.468542482 0 0
0.462935051 0 0
0.480200536 0 0
0.474297716 0 0
0.468542410 0 0
0.462935124 0 0
0.462934641 0 0
0.457474320 0 0
0.452157481 0 0
0.446978948 0 0
0.462935215 0 0
0.457475003 0 0
0.452158147 0 0
0.446979471 0 0
0.462935051 0 0
0.457475002 0 0
0.452158149 0 0
0.446979314 0 0
0.462935124 0 0
0.457474943 0 0
0.452158090 0 0
0.446979395 0 0
0.446978948 0 0
0.441932885 0 0
0.437016216 0 0
0.432225223 0 0
0.446979471 0 0
0.441933515 0 0
0.437016831 0 0
0.432225700 0 0
0.446979314 0 0
0.441933515 0 0
0.437016834 0 0
0.432225549 0 0
0.446979395 0 0
0.441933468 0 0
0.437016787 0 0
0.432225637 0 0
0.432225223 0 0
0.427555960 0 0
0.423008796 0 0
0.418583890 0 0
0.432225700 0 0
0.427556540 0 0
0.423009362 0 0
0.418584323 0 0
0.432225549 0 0
0.427556541 0 0
0.423009365 0 0
0.418584178 0 0
0.432225637 0 0
0.427556505 0 0
0.423009329 0 0
0.418584272 0 0
0.418583890 0 0
0.414280882 0 0
0.410102387 0 0
0.406050518 0 0
0.418584323 0 0
0.414281416 0 0
0.410102909 0 0
0.406050911 0 0
0.418584178 0 0
0.414281417 0 0
0.410102912 0 0
0.406050770 0 0
0.418584272 0 0
0.414281391 0 0
0.410102886 0 0
0.406050869 0 0
0.406050518 0 0
0.402126460 0 0
0.398332605 0 0
0.394670434 0 0
0.406050911 0 0
0.402126952 0 0
0.398333086 0 0
0.394670791 0 0
0.406050770 0 0
0.402126953 0 0
0.398333089 0 0
0.394670653 0 0
0.406050869 0 0
0.402126936 0 0
0.398333071 0 0
0.394670758 0 0
0.394670434 0 0
0.391140388 0 0
0.387743511 0 0
0.384479824 0 0
0.394670791 0 0
0.391140841 0 0
0.387743954 0 0
0.384480147 0 0
0.394670653 0 0
0.391140842 0 0
0.387743956 0 0
0.384480013 0 0
0.394670758 0 0
0.391140833 0 0
0.387743947 0 0
0.384480123 0 0
0.384479824 0 0
0.381348450 0 0
0.378349570 0 0
0.375482481 0 0
0.384480147 0 0
0.381348868 0 0
0.378349978 0 0
0.375482773 0 0
0.384480013 0 0
0.381348869 0 0
0.378349981 0 0
0.375482642 0 0
0.384480123 0 0
0.381348868 0 0
0.378349980 0 0
0.375482757 0 0
0.375482481 0 0
0.372745762 0 0
0.370139644 0 0
0.367663654 0 0
0.375482773 0 0
0.372746147 0 0
0.370140021 0 0
0.367663917 0 0
0.375482642 0 0
0.372746149 0 0
0.370140024 0 0
0.367663789 0 0
0.375482757 0 0
0.372746155 0 0
0.370140030 0 0
0.367663909 0 0
0.367663654 0 0
0.365316660 0 0
0.363099353 0 0
0.361011778 0 0
0.367663917 0 0
0.365317015 0 0
0.363099700 0 0
0.361012015 0 0
0.367663789 0 0
0.365317017 0 0
0.363099702 0 0
0.361011889 0 0
0.367663909 0 0
0.365317030 0 0
0.363099716 0 0
0.361012013 0 0
0.361011778 0 0
0.359053295 0 0
0.357224872 0 0
0.355526801 0 0
0.361012015 0 0
0.359053623 0 0
0.357225193 0 0
0.355527014 0 0
0.361011889 0 0
0.359053624 0 0
0.357225195 0 0
0.355526890 0 0
0.361012013 0 0
0.359053643 0 0
0.357225215 0 0
0.355527019 0 0
0.355526801 0 0
0.353958642 0 0
0.352521312 0 0
0.351215007 0 0
0.355527014 0 0
0.353958945 0 0
0.352521608 0 0
0.351215197 0 0
0.355526890 0 0
0.353958946 0 0
0.352521610 0 0
0.351215074 0 0
0.355527019 0 0
0.353958971 0 0
0.352521636 0 0
0.351215207 0 0
0.351215007 0 0
0.350039180 0 0
0.348994562 0 0
0.348081150 0 0
0.351215197 0 0
0.350039460 0 0
0.348994836 0 0
0.348081319 0 0
0.351215074 0 0
0.350039461 0 0
0.348994838 0 0
0.348081198 0 0
0.351215207 0 0
0.350039492 0 0
0.348994869 0 0
0.348081336 0 0
0.348081150 0 0
0.347298226 0 0
0.346646406 0 0
0.346125595 0 0
0.348081319 0 0
0.347298486 0 0
0.346646659 0 0
0.346125745 0 0
0.348081198 0 0
0.347298487 0 0
0.346646661 0 0
0.346125624 0 0
0.348081336 0 0
0.347298523 0 0
0.346646698 0 0
0.346125767 0 0
0.346125595 0 0
0.345735009 0 0
0.345475275 0 0
0.345346330 0 0
0.346125745 0 0
0.345735250 0 0
0.345475509 0 0
0.345346463 0 0
0.346125624 0 0
0.345735251 0 0
0.345475510 0 0
0.345346342 0 0
0.346125767 0 0
0.345735292 0 0
0.345475553 0 0
0.345346489 0 0
0.345346330 0 0
0.345347436 0 0
0.345479280 0 0
0.345741870 0 0
0.345346463 0 0
0.345347659 0 0
0.345479497 0 0
0.345741986 0 0
0.345346342 0 0
0.345347660 0 0
0.345479498 0 0
0.345741865 0 0
0.345346489 0 0
0.345347706 0 0
0.345479546 0 0
0.345742018 0 0
0.345741870 0 0
0.346134531 0 0
0.346657988 0 0
0.347312282 0 0
0.345741986 0 0
0.346134738 0 0
0.346658190 0 0
0.347312382 0 0
0.345741865 0 0
0.346134739 0 0
0.346658191 0 0
0.347312260 0 0
0.345742018 0 0
0.346134790 0 0
0.346658244 0 0
0.347312418 0 0
0.347312282 0 0
0.348096754 0 0
0.349012130 0 0
0.350058433 0 0
0.347312382 0 0
0.348096947 0 0
0.349012318 0 0
0.350058519 0 0
0.347312260 0 0
0.348096948 0 0
0.349012318 0 0
0.350058396 0 0
0.347312418 0 0
0.348097004 0 0
0.349012376 0 0
0.350058560 0 0
0.350058433 0 0
0.351234984 0 0
0.352542490 0 0
0.353980948 0 0
0.350058519 0 0
0.351235164 0 0
0.352542666 0 0
0.353981021 0 0
0.350058396 0 0
0.351235165 0 0
0.352542666 0 0
0.353980897 0 0
0.350058560 0 0
0.351235226 0 0
0.352542729 0 0
0.353981066 0 0
0.353980948 0 0
0.355549648 0 0
0.357249289 0 0
0.359079858 0 0
0.353981021 0 0
0.355549816 0 0
0.357249453 0 0
0.359079919 0 0
0.353980897 0 0
0.355549817 0 0
0.357249453 0 0
0.359079792 0 0
0.353981066 0 0
0.355549882 0 0
0.357249521 0 0
0.359079968 0 0
0.359079858 0 0
0.361040626 0 0
0.363132306 0 0
0.365354889 0 0
0.359079919 0 0
0.361040784 0 0
0.363132460 0 0
0.365354939 0 0
0.359079792 0 0
0.361040785 0 0
0.363132460 0 0
0.365354810 0 0
0.359079968 0 0
0.361040854 0 0
0.363132533 0 0
0.365354992 0 0
0.365354889 0 0
0.367707641 0 0
0.370191295 0 0
0.372805852 0 0
0.365354939 0 0
0.367707790 0 0
0.370191440 0 0
0.372805891 0 0
0.365354810 0 0
0.367707790 0 0
0.370191439 0 0
0.372805759 0 0
0.365354992 0 0
0.367707864 0 0
0.370191517 0 0
0.372805949 0 0
0.372805852 0 0
0.375550572 0 0
0.378426208 0 0
0.381432766 0 0
0.372805891 0 0
0.375550713 0 0
0.378426346 0 0
0.381432795 0 0
0.372805759 0 0
0.375550713 0 0
0.378426345 0 0
0.381432660 0 0
0.372805949 0 0
0.375550792 0 0
0.378426428 0 0
0.381432857 0 0
0.381432766 0 0
0.384569489 0 0
0.387837150 0 0
0.391235750 0 0
0.381432795 0 0
0.384569623 0 0
0.387837281 0 0
0.391235770 0 0
0.381432660 0 0
0.384569624 0 0
0.387837279 0 0
0.391235631 0 0
0.381432857 0 0
0.384569707 0 0
0.387837367 0 0
0.391235836 0 0
0.391235750 0 0
0.394764512 0 0
0.398424225 0 0
0.402214886 0 0
0.391235770 0 0
0.394764640 0 0
0.398424349 0 0
0.402214897 0 0
0.391235631 0 0
0.394764640 0 0
0.398424348 0 0
0.402214754 0 0
0.391235836 0 0
0.394764729 0 0
0.398424441 0 0
0.402214968 0 0
0.402214886 0 0
0.406135695 0 0
0.410187460 0 0
0.414370177 0 0
0.402214897 0 0
0.406135818 0 0
0.410187579 0 0
0.414370180 0 0
0.402214754 0 0
0.406135818 0 0
0.410187577 0 0
0.414370032 0 0
0.402214968 0 0
0.406135911 0 0
0.410187675 0 0
0.414370255 0 0
0.414370177 0 0
0.418683020 0 0
0.423126824 0 0
0.427701585 0 0
0.414370180 0 0
0.418683139 0 0
0.423126939 0 0
0.427701580 0 0
0.414370032 0 0
0.418683138 0 0
0.423126937 0 0
0.427701428 0 0
0.414370255 0 0
0.418683237 0 0
0.423127041 0 0
0.427701659 0 0
0.427701585 0 0
0.432406451 0 0
0.437242286 0 0
0.442209086 0 0
0.427701580 0 0
0.432406566 0 0
0.437242397 0 0
0.442209074 0 0
0.427701428 0 0
0.432406566 0 0
0.437242395 0 0
0.442208916 0 0
0.427701659 0 0
0.432406669 0 0
0.437242504 0 0
0.442209157 0 0
0.442209086 0 0
0.447305973 0 0
0.452533840 0 0
0.457892684 0 0
0.442209074 0 0
0.447306085 0 0
0.452533949 0 0
0.457892665 0 0
0.442208916 0 0
0.447306085 0 0
0.452533945 0 0
0.457892501 0 0
0.442209157 0 0
0.447306193 0 0
0.452534060 0 0
0.457892753 0 0
0.457892684 0 0
0.463381596 0 0
0.469001501 0 0
0.474752394 0 0
0.457892665 0 0
0.463381706 0 0
0.469001607 0 0
0.474752370 0 0
0.457892501 0 0
0.463381705 0 0
0.469001604 0 0
0.474752200 0 0
0.457892753 0 0
0.463381819 0 0
0.469001724 0 0
0.474752462 0 0
0.474752394 0 0
0.480633336 0 0
0.486645282 0 0
0.492788229 0 0
0.474752370 0 0
0.480633444 0 0
0.486645388 0 0
0.492788199 0 0
0.474752200 0 0
0.480633443 0 0
0.486645383 0 0
0.492788022 0 0
0.474752462 0 0
0.480633563 0 0
0.486645510 0 0
0.492788295 0 0
0.492788229 0 0
0.499061200 0 0
0.505465188 0 0
0.512000189 0 0
0.492788199 0 0
0.499061308 0 0
0.505465293 0 0
0.512000153 0 0
0.492788022 0 0
0.499061307 0 0
0.505465288 0 0
0.511999969 0 0
0.492788295 0 0
0.499061432 0 0
0.505465421 0 0
0.512000254 0 0
0.512000189 0 0
0.518665187 0 0
0.525461215 0 0
0.532388269 0 0
0.512000153 0 0
0.518665295 0 0
0.525461320 0 0
0.532388227 0 0
0.511999969 0 0
0.518665294 0 0
0.525461315 0 0
0.532388036 0 0
0.512000254 0 0
0.518665425 0 0
0.525461454 0 0
0.532388333 0 0
0.532388269 0 0
0.539445292 0 0
0.546633359 0 0
0.553952465 0 0
0.532388227 0 0
0.539445401 0 0
0.546633464 0 0
0.553952418 0 0
0.532388036 0 0
0.539445399 0 0
0.546633459 0 0
0.553952218 0 0
0.532388333 0 0
0.539445536 0 0
0.546633604 0 0
0.553952528 0 0
0.553952465 0 0
0.561401511 0 0
0.568981616 0 0
0.576692774 0 0
0.553952418 0 0
0.561401621 0 0
0.568981722 0 0
0.576692722 0 0
0.553952218 0 0
0.561401618 0 0
0.568981716 0 0
0.576692514 0 0
0.553952528 0 0
0.561401762 0 0
0.568981868 0 0
0.576692837 0 0
0.576692774 0 0
0.584533843 0 0
0.592505986 0 0
0.600609199 0 0
0.576692722 0 0
0.584533954 0 0
0.592506094 0 0
0.600609142 0 0
0.576692514 0 0
0.584533952 0 0
0.592506087 0 0
0.600608925 0 0
0.576692837 0 0
0.584534101 0 0
0.592506246 0 0
0.600609262 0 0
0.600609199 0 0
0.608842290 0 0
0.617206473 0 0
0.625701742 0 0
0.600609142 0 0
0.608842404 0 0
0.617206583 0 0
0.625701681 0 0
0.600608925 0 0
0.608842400 0 0
0.617206576 0 0
0.625701454 0 0
0.600609262 0 0
0.608842556 0 0
0.617206741 0 0
0.625701805 0 0
0.625701742 0 0
0.634326857 0 0
0.643083082 0 0
0.651970410 0 0
0.625701681 0 0
0.634326974 0 0
0.643083195 0 0
0.651970345 0 0
0.625701454 0 0
0.634326970 0 0
0.643083186 0 0
0.651970108 0 0
0.625701805 0 0
0.634327132 0 0
0.643083359 0 0
0.651970474 0 0
0.651970410 0 0
0.660987550 0 0
0.670135816 0 0
0.679415204 0 0
0.651970345 0 0
0.660987669 0 0
0.670135933 0 0
0.679415134 0 0
0.651970108 0 0
0.660987665 0 0
0.670135923 0 0
0.679414887 0 0
0.651970474 0 0
0.660987834 0 0
0.670136103 0 0
0.679415268 0 0
0.679415204 0 0
0.688824365 0 0
0.698364670 0 0
0.708036112 0 0
0.679415134 0 0
0.688824488 0 0
0.698364790 0 0
0.708036039 0 0
0.679414887 0 0
0.688824483 0 0
0.698364780 0 0
0.708035780 0 0
0.679415268 0 0
0.688824659 0 0
0.698364967 0 0
0.708036177 0 0
0.708036112 0 0
0.717837287 0 0
0.727769625 0 0
0.737833117 0 0
0.708036039 0 0
0.717837415 0 0
0.727769749 0 0
0.737833039 0 0
0.708035780 0 0
0.717837409 0 0
0.727769738 0 0
0.737832769 0 0
0.708036177 0 0
0.717837593 0 0
0.727769932 0 0
0.737833182 0 0
0.737833117 0 0
0.748026300 0 0
0.758350666 0 0
0.768806208 0 0
0.737833039 0 0
0.748026433 0 0
0.758350795 0 0
0.768806127 0 0
0.737832769 0 0
0.748026426 0 0
0.758350783 0 0
0.768805845 0 0
0.737833182 0 0
0.748026616 0 0
0.758350985 0 0
0.768806275 0 0
0.768806208 0 0
0.779391403 0 0
0.790107806 0 0
0.800955410 0 0
0.768806127 0 0
0.779391541 0 0
0.790107940 0 0
0.800955325 0 0
0.768805845 0 0
0.779391533 0 0
0.790107926 0 0
0.800955031 0 0
0.768806275 0 0
0.779391731 0 0
0.790108136 0 0
0.800955477 0 0
0.800955410 0 0
0.811932630 0 0
0.823041083 0 0
0.834280764 0 0
0.800955325 0 0
0.811932773 0 0
0.823041223 0 0
0.834280675 0 0
0.800955031 0 0
0.811932764 0 0
0.823041208 0 0
0.834280368 0 0
0.800955477 0 0
0.811932969 0 0
0.823041425 0 0
0.834280833 0 0
0.834280764 0 0
0.845650018 0 0
0.857150527 0 0
0.868782280 0 0
0.834280675 0 0
0.845650167 0 0
0.857150673 0 0
0.868782188 0 0
0.834280368 0 0
0.845650157 0 0
0.857150656 0 0
0.868781868 0 0
0.834280833 0 0
0.845650370 0 0
0.857150881 0 0
0.868782350 0 0
0.868782280 0 0
0.880543552 0 0
0.892436089 0 0
0.904459879 0 0
0.868782188 0 0
0.880543707 0 0
0.892436241 0 0
0.904459784 0 0
0.868781868 0 0
0.880543696 0 0
0.892436223 0 0
0.904459449 0 0
0.868782350 0 0
0.880543916 0 0
0.892436457 0 0
0.904459950 0 0
0.904459879 0 0
0.916613121 0 0
0.928897639 0 0
0.941313420 0 0
0.904459784 0 0
0.916613284 0 0
0.928897798 0 0
0.941313321 0 0
0.904459449 0 0
0.916613271 0 0
0.928897778 0 0
0.941312972 0 0
0.904459950 0 0
0.916613499 0 0
0.928898019 0 0
0.941313491 0 0
0.941313420 0 0
0.953858596 0 0
0.966535072 0 0
0.979342848 0 0
0.941313321 0 0
0.953858765 0 0
0.966535238 0 0
0.979342746 0 0
0.941312972 0 0
0.953858751 0 0
0.966535217 0 0
0.979342381 0 0
0.941313491 0 0
0.953858987 0 0
0.966535466 0 0
0.979342921 0 0
0.979342848 0 0
0.992279988 0 0
1.005348484 0 0
1.018548341 0 0
0.979342746 0 0
0.992280166 0 0
1.005348658 0 0
1.018548236 0 0
0.979342381 0 0
0.992280149 0 0
1.005348634 0 0
1.018547856 0 0
0.979342921 0 0
0.992280393 0 0
1.005348892 0 0
1.018548415 0 0
1.018548341 0 0
1.031877553 0 0
1.045338181 0 0
1.058930222 0 0
1.018548236 0 0
1.031877738 0 0
1.045338362 0 0
1.058930113 0 0
1.018547856 0 0
1.031877720 0 0
1.045338336 0 0
1.058929716 0 0
1.018548415 0 0
1.031877971 0 0
1.045338602 0 0
1.058930296 0 0
1.058930222 0 0
1.072651575 0 0
1.086504359 0 0
1.100488541 0 0
1.058930113 0 0
1.072651769 0 0
1.086504549 0 0
1.100488430 0 0
1.058929716 0 0
1.072651748 0 0
1.086504521 0 0
1.100488016 0 0
1.058930296 0 0
1.072652008 0 0
1.086504795 0 0
1.100488616 0 0
1.100488541 0 0
1.114601910 0 0
1.128846644 0 0
1.143222688 0 0
1.100488430 0 0
1.114602112 0 0
1.128846842 0 0
1.143222573 0 0
1.100488016 0 0
1.114602089 0 0
1.128846811 0 0
1.143222141 0 0
1.100488616 0 0
1.114602357 0 0
1.128847094 0 0
1.143222762 0 0
1.143222688 0 0
1.157727731 0 0
1.172364056 0 0
1.187131632 0 0
1.143222573 0 0
1.157727942 0 0
1.172364263 0 0
1.187131515 0 0
1.143222141 0 0
1.157727917 0 0
1.172364229 0 0
1.187131064 0 0
1.143222762 0 0
1.157728193 0 0
1.172364520 0 0
1.187131707 0 0
1.187131632 0 0
1.202028097 0 0
1.217055887 0 0
1.232215050 0 0
1.187131515 0 0
1.202028317 0 0
1.217056103 0 0
1.232214929 0 0
1.187131064 0 0
1.202028289 0 0
1.217056066 0 0
1.232214460 0 0
1.187131707 0 0
1.202028573 0 0
1.217056366 0 0
1.232215124 0 0
1.232215050 0 0
1.247503205 0 0
1.262922941 0 0
1.278474356 0 0
1.232214929 0 0
1.247503435 0 0
1.262923166 0 0
1.278474232 0 0
1.232214460 0 0
1.247503404 0 0
1.262923126 0 0
1.278473743 0 0
1.232215124 0 0
1.247503696 0 0
1.262923434 0 0
1.278474429 0 0
1.278474356 0 0
1.294155012 0 0
1.309967534 0 0
1.325911942 0 0
1.278474232 0 0
1.294155252 0 0
1.309967769 0 0
1.325911814 0 0
1.278473743 0 0
1.294155217 0 0
1.309967725 0 0
1.325911305 0 0
1.278474429 0 0
1.294155517 0 0
1.309968041 0 0
1.325912014 0 0
1.325911942 0 0
1.341985603 0 0
1.358191042 0 0
1.374528061 0 0
1.325911814 0 0
1.341985852 0 0
1.358191286 0 0
1.374527930 0 0
1.325911305 0 0
1.341985814 0 0
1.358191238 0 0
1.374527399 0 0
1.325912014 0 0
1.341986122 0 0
1.358191563 0 0
1.374528131 0 0
1.374528061 0 0
1.390993724 0 0
1.407590488 0 0
1.424318004 0 0
1.374527930 0 0
1.390993983 0 0
1.407590742 0 0
1.424317868 0 0
1.374527399 0 0
1.390993941 0 0
1.407590691 0 0
1.424317317 0 0
1.374528131 0 0
1.390994257 0 0
1.407591024 0 0
1.424318071 0 0
1.424318004 0 0
1.441173142 0 0
1.458158609 0 0
1.475274263 0 0
1.424317868 0 0
1.441173411 0 0
1.458158873 0 0
1.475274124 0 0
1.424317317 0 0
1.441173365 0 0
1.458158818 0 0
1.475273550 0 0
1.424318071 0 0
1.441173690 0 0
1.458159160 0 0
1.475274328 0 0
1.475274263 0 0
1.492517144 0 0
1.509890576 0 0
1.527394997 0 0
1.475274124 0 0
1.492517423 0 0
1.509890851 0 0
1.527394853 0 0
1.475273550 0 0
1.492517374 0 0
1.509890791 0 0
1.527394256 0 0
1.475274328 0 0
1.492517706 0 0
1.509891141 0 0