# vtk DataFile Version 2.0
Square plate test
ASCII
DATASET UNSTRUCTURED_GRID
POINTS 1339 float
10 0.500000000 0
9.950000000 0.500000000 0
9.851000000 0.500000000 0
9.752000000 0.500000000 0
9.653000000 0.500000000 0
9.554000000 0.500000000 0
9.455000000 0.500000000 0
9.356000000 0.500000000 0
9.257000000 0.500000000 0
9.158000000 0.500000000 0
9.059000000 0.500000000 0
8.960000000 0.500000000 0
8.861000000 0.500000000 0
8.762000000 0.500000000 0
8.663000000 0.500000000 0
8.564000000 0.500000000 0
8.465000000 0.500000000 0
8.366000000 0.500000000 0
8.267000000 0.500000000 0
8.168000000 0.500000000 0
8.069000000 0.500000000 0
7.970000000 0.500000000 0
7.871000000 0.500000000 0
7.772000000 0.500000000 0
7.673000000 0.500000000 0
7.574000000 0.500000000 0
7.475000000 0.500000000 0
7.376000000 0.500000000 0
7.277000000 0.500000000 0
7.178000000 0.500000000 0
7.079000000 0.500000000 0
6.980000000 0.500000000 0
6.881000000 0.500000000 0
6.782000000 0.500000000 0
6.683000000 0.500000000 0
6.584000000 0.500000000 0
6.485000000 0.500000000 0
6.386000000 0.500000000 0
6.287000000 0.500000000 0
6.188000000 0.500000000 0
6.089000000 0.500000000 0
5.990000000 0.500000000 0
5.891000000 0.500000000 0
5.792000000 0.500000000 0
5.693000000 0.500000000 0
5.594000000 0.500000000 0
5.495000000 0.500000000 0
5.396000000 0.500000000 0
5.297000000 0.500000000 0
5.198000000 0.500000000 0
5.099000000 0.500000000 0
5.000000000 0.500000000 0
4.901000000 0.500000000 0
4.802000000 0.500000000 0
4.703000000 0.500000000 0
4.604000000 0.500000000 0
4.505000000 0.500000000 0
4.406000000 0.500000000 0
4.307000000 0.500000000 0
4.208000000 0.500000000 0
4.109000000 0.500000000 0
4.010000000 0.500000000 0
3.911000000 0.500000000 0
3.812000000 0.500000000 0
3.713000000 0.500000000 0
3.614000000 0.500000000 0
3.515000000 0.500000000 0
3.416000000 0.500000000 0
3.317000000 0.500000000 0
3.218000000 0.500000000 0
3.119000000 0.500000000 0
3.020000000 0.500000000 0
2.921000000 0.500000000 0
2.822000000 0.500000000 0
2.723000000 0.500000000 0
2.624000000 0.500000000 0
2.525000000 0.500000000 0
2.426000000 0.500000000 0
2.327000000 0.500000000 0
2.228000000 0.500000000 0
2.129000000 0.500000000 0
2.030000000 0.500000000 0
1.931000000 0.500000000 0
1.832000000 0.500000000 0
1.733000000 0.500000000 0
1.634000000 0.500000000 0
1.535000000 0.500000000 0
1.436000000 0.500000000 0
1.337000000 0.500000000 0
1.238000000 0.500000000 0
1.139000000 0.500000000 0
1.040000000 0.500000000 0
0.941000000 0.500000000 0
0.842000000 0.500000000 0
0.743000000 0.500000000 0
0.644000000 0.500000000 0
0.545000000 0.500000000 0
0.446000000 0.500000000 0
0.347000000 0.500000000 0
0.248000000 0.500000000 0
0.149000000 0.500000000 0
0.050000000 0.500000000 0
0.000000000 0.500000000 0
10.000000000 0.460000000 0
9.950000000 0.460000000 0
9.851000000 0.460000000 0
9.752000000 0.460000000 0
9.653000000 0.460000000 0
9.554000000 0.460000000 0
9.455000000 0.460000000 0
9.356000000 0.460000000 0
9.257000000 0.460000000 0
9.158000000 0.460000000 0
9.059000000 0.460000000 0
8.960000000 0.460000000 0
8.861000000 0.460000000 0
8.762000000 0.460000000 0
8.663000000 0.460000000 0
8.564000000 0.460000000 0
8.465000000 0.460000000 0
8.366000000 0.460000000 0
8.267000000 0.460000000 0
8.168000000 0.460000000 0
8.069000000 0.460000000 0
7.970000000 0.460000000 0
7.871000000 0.460000000 0
7.772000000 0.460000000 0
7.673000000 0.460000000 0
7.574000000 0.460000000 0
7.475000000 0.460000000 0
7.376000000 0.460000000 0
7.277000000 0.460000000 0
7.178000000 0.460000000 0
7.079000000 0.460000000 0
6.980000000 0.460000000 0
6.881000000 0.460000000 0
6.782000000 0.460000000 0
6.683000000 0.460000000 0
6.584000000 0.460000000 0
6.485000000 0.460000000 0
6.386000000 0.460000000 0
6.287000000 0.460000000 0
6.188000000 0.460000000 0
6.089000000 0.460000000 0
5.990000000 0.460000000 0
5.891000000 0.460000000 0
5.792000000 0.460000000 0
5.693000000 0.460000000 0
5.594000000 0.460000000 0
5.495000000 0.460000000 0
5.396000000 0.460000000 0
5.297000000 0.460000000 0
5.198000000 0.460000000 0
5.099000000 0.460000000 0
5.000000000 0.460000000 0
4.901000000 0.460000000 0
4.802000000 0.460000000 0
4.703000000 0.460000000 0
4.604000000 0.460000000 0
4.505000000 0.460000000 0
4.406000000 0.460000000 0
4.307000000 0.460000000 0
4.208000000 0.460000000 0
4.109000000 0.460000000 0
4.010000000 0.460000000 0
3.911000000 0.460000000 0
3.812000000 0.460000000 0
3.713000000 0.460000000 0
3.614000000 0.460000000 0
3.515000000 0.460000000 0
3.416000000 0.460000000 0
3.317000000 0.460000000 0
3.218000000 0.460000000 0
3.119000000 0.460000000 0
3.020000000 0.460000000 0
2.921000000 0.460000000 0
2.822000000 0.460000000 0
2.723000000 0.460000000 0
2.624000000 0.460000000 0
2.525000000 0.460000000 0
2.426000000 0.460000000 0
2.327000000 0.460000000 0
2.228000000 0.460000000 0
2.129000000 0.460000000 0
2.030000000 0.460000000 0
1.931000000 0.460000000 0
1.832000000 0.460000000 0
1.733000000 0.460000000 0
1.634000000 0.460000000 0
1.535000000 0.460000000 0
1.436000000 0.460000000 0
1.337000000 0.460000000 0
1.238000000 0.460000000 0
1.139000000 0.460000000 0
1.040000000 0.460000000 0
0.941000000 0.460000000 0
0.842000000 0.460000000 0
0.743000000 0.460000000 0
0.644000000 0.460000000 0
0.545000000 0.460000000 0
0.446000000 0.460000000 0
0.347000000 0.460000000 0
0.248000000 0.460000000 0
0.149000000 0.460000000 0
0.050000000 0.460000000 0
0.000000000 0.460000000 0
10.000000000 0.368000000 0
9.950000000 0.368000000 0
9.851000000 0.368000000 0
9.752000000 0.368000000 0
9.653000000 0.368000000 0
9.554000000 0.368000000 0
9.455000000 0.368000000 0
9.356000000 0.368000000 0
9.257000000 0.368000000 0
9.158000000 0.368000000 0
9.059000000 0.368000000 0
8.960000000 0.368000000 0
8.861000000 0.368000000 0
8.762000000 0.368000000 0
8.663000000 0.368000000 0
8.564000000 0.368000000 0
8.465000000 0.368000000 0
8.366000000 0.368000000 0
8.267000000 0.368000000 0
8.168000000 0.368000000 0
8.069000000 0.368000000 0
7.970000000 0.368000000 0
7.871000000 0.368000000 0
7.772000000 0.368000000 0
7.673000000 0.368000000 0
7.574000000 0.368000000 0
7.475000000 0.368000000 0
7.376000000 0.368000000 0
7.277000000 0.368000000 0
7.178000000 0.368000000 0
7.079000000 0.368000000 0
6.980000000 0.368000000 0
6.881000000 0.368000000 0
6.782000000 0.368000000 0
6.683000000 0.368000000 0
6.584000000 0.368000000 0
6.485000000 0.368000000 0
6.386000000 0.368000000 0
6.287000000 0.368000000 0
6.188000000 0.368000000 0
6.089000000 0.368000000 0
5.990000000 0.368000000 0
5.891000000 0.368000000 0
5.792000000 0.368000000 0
5.693000000 0.368000000 0
5.594000000 0.368000000 0
5.495000000 0.368000000 0
5.396000000 0.368000000 0
5.297000000 0.368000000 0
5.198000000 0.368000000 0
5.099000000 0.368000000 0
5.000000000 0.368000000 0
4.901000000 0.368000000 0
4.802000000 0.368000000 0
4.703000000 0.368000000 0
4.604000000 0.368000000 0
4.505000000 0.368000000 0
4.406000000 0.368000000 0
4.307000000 0.368000000 0
4.208000000 0.368000000 0
4.109000000 0.368000000 0
4.010000000 0.368000000 0
3.911000000 0.368000000 0
3.812000000 0.368000000 0
3.713000000 0.368000000 0
3.614000000 0.368000000 0
3.515000000 0.368000000 0
3.416000000 0.368000000 0
3.317000000 0.368000000 0
3.218000000 0.368000000 0
3.119000000 0.368000000 0
3.020000000 0.368000000 0
2.921000000 0.368000000 0
2.822000000 0.368000000 0
2.723000000 0.368000000 0
2.624000000 0.368000000 0
2.525000000 0.368000000 0
2.426000000 0.368000000 0
2.327000000 0.368000000 0
2.228000000 0.368000000 0
2.129000000 0.368000000 0
2.030000000 0.368000000 0
1.931000000 0.368000000 0
1.832000000 0.368000000 0
1.733000000 0.368000000 0
1.634000000 0.368000000 0
1.535000000 0.368000000 0
1.436000000 0.368000000 0
1.337000000 0.368000000 0
1.238000000 0.368000000 0
1.139000000 0.368000000 0
1.040000000 0.368000000 0
0.941000000 0.368000000 0
0.842000000 0.368000000 0
0.743000000 0.368000000 0
0.644000000 0.368000000 0
0.545000000 0.368000000 0
0.446000000 0.368000000 0
0.347000000 0.368000000 0
0.248000000 0.368000000 0
0.149000000 0.368000000 0
0.050000000 0.368000000 0
0.000000000 0.368000000 0
10.000000000 0.276000000 0
9.950000000 0.276000000 0
9.851000000 0.276000000 0
9.752000000 0.276000000 0
9.653000000 0.276000000 0
9.554000000 0.276000000 0
9.455000000 0.276000000 0
9.356000000 0.276000000 0
9.257000000 0.276000000 0
9.158000000 0.276000000 0
9.059000000 0.276000000 0
8.960000000 0.276000000 0
8.861000000 0.276000000 0
8.762000000 0.276000000 0
8.663000000 0.276000000 0
8.564000000 0.276000000 0
8.465000000 0.276000000 0
8.366000000 0.276000000 0
8.267000000 0.276000000 0
8.168000000 0.276000000 0
8.069000000 0.276000000 0
7.970000000 0.276000000 0
7.871000000 0.276000000 0
7.772000000 0.276000000 0
7.673000000 0.276000000 0
7.574000000 0.276000000 0
7.475000000 0.276000000 0
7.376000000 0.276000000 0
7.277000000 0.276000000 0
7.178000000 0.276000000 0
7.079000000 0.276000000 0
6.980000000 0.276000000 0
6.881000000 0.276000000 0
6.782000000 0.276000000 0
6.683000000 0.276000000 0
6.584000000 0.276000000 0
6.485000000 0.276000000 0
6.386000000 0.276000000 0
6.287000000 0.276000000 0
6.188000000 0.276000000 0
6.089000000 0.276000000 0
5.990000000 0.276000000 0
5.891000000 0.276000000 0
5.792000000 0.276000000 0
5.693000000 0.276000000 0
5.594000000 0.276000000 0
5.495000000 0.276000000 0
5.396000000 0.276000000 0
5.297000000 0.276000000 0
5.198000000 0.276000000 0
5.099000000 0.276000000 0
5.000000000 0.276000000 0
4.901000000 0.276000000 0
4.802000000 0.276000000 0
4.703000000 0.276000000 0
4.604000000 0.276000000 0
4.505000000 0.276000000 0
4.406000000 0.276000000 0
4.307000000 0.276000000 0
4.208000000 0.276000000 0
4.109000000 0.276000000 0
4.010000000 0.276000000 0
3.911000000 0.276000000 0
3.812000000 0.276000000 0
3.713000000 0.276000000 0
3.614000000 0.276000000 0
3.515000000 0.276000000 0
3.416000000 0.276000000 0
3.317000000 0.276000000 0
3.218000000 0.276000000 0
3.119000000 0.276000000 0
3.020000000 0.276000000 0
[...]
POINT_DATA 1339
VECTORS y float
0 0 1.000000000
0 0 0.926808887
0 0 0.832899034
0 0 0.826131049
0 0 0.845784676
0 0 0.841006182
0 0 0.806292691
0 0 0.762753427
0 0 0.728043850
0 0 0.704022208
0 0 0.683208405
0 0 0.659573645
0 0 0.632839416
0 0 0.606000759
0 0 0.581393617
0 0 0.559195271
0 0 0.538381952
0 0 0.518174010
0 0 0.498568583
0 0 0.479979242
0 0 0.462711640
0 0 0.446779266
0 0 0.432042301
0 0 0.418400276
0 0 0.405857424
0 0 0.394470698
0 0 0.384280020
0 0 0.375285857
0 0 0.367469185
0 0 0.360817118
0 0 0.355330843
0 0 0.351018185
0 0 0.347884350
0 0 0.345929227
0 0 0.345150237
0 0 0.345545736
0 0 0.347115967
0 0 0.349862002
0 0 0.353784520
0 0 0.358883482
0 0 0.365158542
0 0 0.372609490
0 0 0.381236371
0 0 0.391039330
0 0 0.402018457
0 0 0.414173743
0 0 0.427505142
0 0 0.442012628
0 0 0.457696207
0 0 0.474555899
0 0 0.492591716
0 0 0.511803657
0 0 0.532191718
0 0 0.553755892
0 0 0.576496179
0 0 0.600412578
0 0 0.625505096
0 0 0.651773737
0 0 0.679218505
0 0 0.707839389
0 0 0.737636365
0 0 0.768609422
0 0 0.800758582
0 0 0.834083900
0 0 0.868585395
0 0 0.904262986
0 0 0.941116505
0 0 0.979145863
0 0 1.018351251
0 0 1.058733068
0 0 1.100291453
0 0 1.143025764
0 0 1.186934757
0 0 1.232017877
0 0 1.278276639
0 0 1.325714031
0 0 1.374330935
0 0 1.424122350
0 0 1.475079143
0 0 1.527197807
0 0 1.580490444
0 0 1.634979318
0 0 1.690669698
0 0 1.747522836
0 0 1.805471645
0 0 1.864494882
0 0 1.924688390
0 0 1.986217524
0 0 2.049111155
0 0 2.113069393
0 0 2.177600105
0 0 2.242582190
0 0 2.308773957
0 0 2.377409449
0 0 2.448638398
0 0 2.520137870
0 0 2.588182474
0 0 2.651712424
0 0 2.715738905
0 0 2.788321262
0 0 2.871083929
0 0 2.957074357
0 0 3.000000000
0 0 1.000000000
0 0 0.926810103
0 0 0.832900595
0 0 0.826141296
0 0 0.845786479
0 0 0.841012050
0 0 0.806296417
0 0 0.762757275
0 0 0.728047039
0 0 0.704025277
0 0 0.683211244
0 0 0.659576302
0 0 0.632841847
0 0 0.606002987
0 0 0.581395665
0 0 0.559197164
0 0 0.538383703
0 0 0.518175625
0 0 0.498570071
0 0 0.479980612
0 0 0.462712905
0 0 0.446780433
0 0 0.432043379
0 0 0.418401271
0 0 0.405858342
0 0 0.394471546
0 0 0.384280804
0 0 0.375286582
0 0 0.367469856
0 0 0.360817739
0 0 0.355331419
0 0 0.351018720
0 0 0.347884847
0 0 0.345929690
0 0 0.345150669
0 0 0.345546140
0 0 0.347116345
0 0 0.349862358
0 0 0.353784855
0 0 0.358883800
0 0 0.365158844
0 0 0.372609779
0 0 0.381236648
0 0 0.391039597
0 0 0.402018716
0 0 0.414173995
0 0 0.427505389
0 0 0.442012871
0 0 0.457696448
0 0 0.474556139
0 0 0.492591957
0 0 0.511803900
0 0 0.532191963
0 0 0.553756142
0 0 0.576496434
0 0 0.600412840
0 0 0.625505365
0 0 0.651774015
0 0 0.679218792
0 0 0.707839687
0 0 0.737636675
0 0 0.768609744
0 0 0.800758919
0 0 0.834084251
0 0 0.868585762
0 0 0.904263369
0 0 0.941116905
0 0 0.979146282
0 0 1.018351689
0 0 1.058733526
0 0 1.100291932
0 0 1.143026264
0 0 1.186935281
0 0 1.232018424
0 0 1.278277210
0 0 1.325714626
0 0 1.374331555
0 0 1.424122996
0 0 1.475079815
0 0 1.527198507
0 0 1.580491170
0 0 1.634980071
0 0 1.690670478
0 0 1.747523644
0 0 1.805472481
0 0 1.864495744
0 0 1.924689278
0 0 1.986218437
0 0 2.049112097
0 0 2.113070363
0 0 2.177601100
0 0 2.242583206
0 0 2.308774992
0 0 2.377410515
0 0 2.448639515
0 0 2.520139039
0 0 2.588183666
0 0 2.651713551
0 0 2.715739918
0 0 2.788322040
0 0 2.871081770
0 0 2.957074440
0 0 3.000000000
0 0 1.000000000
0 0 0.926809383
0 0 0.832895827
0 0 0.826131242
0 0 0.845786765
0 0 0.841009139
0 0 0.806294702
0 0 0.762754527
0 0 0.728044443
0 0 0.704022773
0 0 0.683209057
0 0 0.659574306
0 0 0.632839993
0 0 0.606001245
0 0 0.581394054
0 0 0.559195695
0 0 0.538382369
0 0 0.518174409
0 0 0.498568958
0 0 0.479979594
0 0 0.462711976
0 0 0.446779590
0 0 0.432042613
0 0 0.418400576
0 0 0.405857711
0 0 0.394470974
0 0 0.384280287
0 0 0.375286115
0 0 0.367469435
0 0 0.360817360
0 0 0.355331078
0 0 0.351018415
0 0 0.347884575
0 0 0.345929448
0 0 0.345150455
0 0 0.345545952
0 0 0.347116181
0 0 0.349862215
0 0 0.353784733
0 0 0.358883696
0 0 0.365158757
0 0 0.372609708
0 0 0.381236591
0 0 0.391039555
0 0 0.402018686
0 0 0.414173977
0 0 0.427505382
0 0 0.442012874
0 0 0.457696460
0 0 0.474556160
0 0 0.492591986
0 0 0.511803937
0 0 0.532192007
0 0 0.553756191
0 0 0.576496489
0 0 0.600412900
0 0 0.625505429
0 0 0.651774083
0 0 0.679218864
0 0 0.707839761
0 0 0.737636752
0 0 0.768609823
0 0 0.800758998
0 0 0.834084330
0 0 0.868585841
0 0 0.904263447
0 0 0.941116981
0 0 0.979146355
0 0 1.018351759
0 0 1.058733591
0 0 1.100291993
0 0 1.143026319
0 0 1.186935329
0 0 1.232018465
0 0 1.278277243
0 0 1.325714650
0 0 1.374331570
0 0 1.424123002
0 0 1.475079811
0 0 1.527198493
0 0 1.580491146
0 0 1.634980040
0 0 1.690670441
0 0 1.747523605
0 0 1.805472442
0 0 1.864495712
0 0 1.924689258
0 0 1.986218442
0 0 2.049112145
0 0 2.113070475
0 0 2.177601297
0 0 2.242583510
0 0 2.308775444
0 0 2.377411191
0 0 2.448640510
0 0 2.520140427
0 0 2.588185496
0 0 2.651715999
0 0 2.715742797
0 0 2.788322832
0 0 2.871080939
0 0 2.957079925
0 0 3.000000000
0 0 1.000000000
0 0 0.926805382
0 0 0.832895152
0 0 0.826132055
0 0 0.845786095
0 0 0.841012541
0 0 0.806297202
0 0 0.762756948
0 0 0.728046515
0 0 0.704024935
0 0 0.683211236
0 0 0.659576431
0 0 0.632841965
0 0 0.606003061
0 0 0.581395748
0 0 0.559197295
0 0 0.538383878
0 0 0.518175821
0 0 0.498570272
0 0 0.479980819
0 0 0.462713125
0 0 0.446780670
0 0 0.432043628
0 0 0.418401530
0 0 0.405858609
0 0 0.394471821
0 0 0.384281087
0 0 0.375286874
0 0 0.367470157
0 0 0.360818048
0 0 0.355331736
0 0 0.351019045
0 0 0.347885181
0 0 0.345930033
0 0 0.345151022
0 0 0.345546503
0 0 0.347116720
0 0 0.349862744
0 0 0.353785254
0 0 0.358884212
0 0 0.365159270
0 0 0.372610220
0 0 0.381237104
0 0 0.391040071
0 0 0.402019207
0 0 0.414174506
0 0 0.427505920
0 0 0.442013422
0 0 0.457697021
0 0 0.474556736
0 0 0.492592577
0 0 0.511804546
0 0 0.532192636
0 0 0.553756842
0 0 0.576497163
0 0 0.600413599
0 0 0.625506154
0 0 0.651774836
0 0 0.679219647
0 0 0.707840575
0 0 0.737637598
0 0 0.768610704
0 0 0.800759915
0 0 0.834085285
0 0 0.868586835
0 0 0.904264482
0 0 0.941118058
0 0 0.979147477
0 0 1.018352926
0 0 1.058734805
0 0 1.100293255
0 0 1.143027631
0 0 1.186936691
0 0 1.232019879
0 0 1.278278710
0 0 1.325716171
0 0 1.374333145
0 0 1.424124631
0 0 1.475081494
0 0 1.527200228
0 0 1.580492933
0 0 1.634981874
0 0 1.690672321
0 0 1.747525525
0 0 1.805474395
0 0 1.864497685
0 0 1.924691235
0 0 1.986220408
0 0 2.049114080
0 0 2.113072355
0 0 2.177603078
0 0 2.242585127
0 0 2.308776827
0 0 2.377412281
0 0 2.448641264
0 0 2.520140751
0 0 2.588185070
0 0 2.651714072
0 0 2.715739137
0 0 2.788321486
0 0 2.871088057
0 0 2.957069754
0 0 3.000000000
0 0 1.000000000
0 0 0.926808679
0 0 0.832900614
0 0 0.826137152
0 0 0.845788134
0 0 0.841011534
0 0 0.806296556
0 0 0.762756192
0 0 0.728045759
0 0 0.704024085
0 0 0.683210388
0 0 0.659575599
0 0 0.632841167
0 0 0.606002303
0 0 0.581395037
0 0 0.559196634
0 0 0.538383264
0 0 0.518175249
0 0 0.498569736
0 0 0.479980318
0 0 0.462712657
0 0 0.446780233
0 0 0.432043220
0 0 0.418401147
0 0 0.405858249
0 0 0.394471481
0 0 0.384280767
0 0 0.375286571
0 0 0.367469870
0 0 0.360817775
0 0 0.355331475
0 0 0.351018796
0 0 0.347884942
0 0 0.345929803
0 0 0.345150800
0 0 0.345546288
0 0 0.347116510
0 0 0.349862540
0 0 0.353785053
0 0 0.358884015
0 0 0.365159075
0 0 0.372610026
0 0 0.381236911
0 0 0.391039878
0 0 0.402019013
0 0 0.414174310
0 0 0.427505722
0 0 0.442013222
0 0 0.457696817
0 0 0.474556528
0 0 0.492592365
0 0 0.511804329
0 0 0.532192413
0 0 0.553756613
0 0 0.576496926
0 0 0.600413355
0 0 0.625505903
0 0 0.651774577
0 0 0.679219379
0 0 0.707840298
0 0 0.737637312
0 0 0.768610408
0 0 0.800759609
0 0 0.834084968
0 0 0.868586507
0 0 0.904264144
0 0 0.941117709
0 0 0.979147116
0 0 1.018352553
0 0 1.058734421
0 0 1.100292859
0 0 1.143027224
0 0 1.186936274
0 0 1.232019451
0 0 1.278278271
0 0 1.325715723
0 0 1.374332688
0 0 1.424124167
0 0 1.475081025
0 0 1.527199755
0 0 1.580492458
0 0 1.634981401
0 0 1.690671854
0 0 1.747525070
0 0 1.805473959
0 0 1.864497274
0 0 1.924690860
0 0 1.986220079
0 0 2.049113815
0 0 2.113072175
0 0 2.177603007
0 0 2.242585191
0 0 2.308777054
0 0 2.377412702
0 0 2.448641914
0 0 2.520141663
0 0 2.588186330
0 0 2.651715935
0 0 2.715741653
0 0 2.788322945
0 0 2.871086653
0 0 2.957073770
0 0 3.000000000
0 0 1.000000000
0 0 0.926807051
0 0 0.832897490
0 0 0.826133511
0 0 0.845786276
0 0 0.841011147
0 0 0.806296180
0 0 0.762756271
0 0 0.728046060
0 0 0.704024469
0 0 0.683210732
0 0 0.659575905
0 0 0.632841450
0 0 0.606002576
0 0 0.581395302
0 0 0.559196886
0 0 0.538383500
0 0 0.518175466
0 0 0.498569937
0 0 0.479980505
0 0 0.462712832
0 0 0.446780398
0 0 0.432043376
0 0 0.418401293
0 0 0.405858386
0 0 0.394471611
0 0 0.384280890
0 0 0.375286688
0 0 0.367469981
0 0 0.360817881
0 0 0.355331577
0 0 0.351018894
0 0 0.347885036
0 0 0.345929894
0 0 0.345150888
0 0 0.345546374
0 0 0.347116594
0 0 0.349862621
0 0 0.353785134
0 0 0.358884094
0 0 0.365159154
0 0 0.372610104
0 0 0.381236989
0 0 0.391039956
0 0 0.402019092
0 0 0.414174390
0 0 0.427505803
0 0 0.442013304
0 0 0.457696901
0 0 0.474556613
0 0 0.492592452
0 0 0.511804418
0 0 0.532192505
0 0 0.553756707
0 0 0.576497024
0 0 0.600413456
0 0 0.625506007
0 0 0.651774684
0 0 0.679219489
0 0 0.707840412
0 0 0.737637430
0 0 0.768610530
0 0 0.800759735
0 0 0.834085098
0 0 0.868586642
0 0 0.904264282
0 0 0.941117852
0 0 0.979147263
0 0 1.018352705
0 0 1.058734577
0 0 1.100293019
0 0 1.143027388
0 0 1.186936442
0 0 1.232019622
0 0 1.278278447
0 0 1.325715902
0 0 1.374332870
0 0 1.424124352
0 0 1.475081213
0 0 1.527199946
0 0 1.580492651
0 0 1.634981595
0 0 1.690672049
0 0 1.747525266
0 0 1.805474155
0 0 1.864497469
0 0 1.924691051
0 0 1.986220265
0 0 2.049113995
0 0 2.113072350
0 0 2.177603178
0 0 2.242585355
0 0 2.308777201
0 0 2.377412816
0 0 2.448641989
0 0 2.520141726
0 0 2.588186424
0 0 2.651716136
0 0 2.715742419
0 0 2.788325280
0 0 2.871089239
0 0 2.957072218
0 0 3.000000000
0 0 1.000000000
0 0 0.926808530
0 0 0.832900126
0 0 0.826135964
0 0 0.845786950
0 0 0.841010591
0 0 0.806295859
0 0 0.762756047
0 0 0.728045931
0 0 0.704024318
0 0 0.683210561
0 0 0.659575732
0 0 0.632841299
0 0 0.606002449
0 0 0.581395192
0 0 0.559196786
0 0 0.538383406
0 0 0.518175378
0 0 0.498569855
0 0 0.479980428
0 0 0.462712759
0 0 0.446780329
0 0 0.432043310
0 0 0.418401230
0 0 0.405858325
0 0 0.394471553
0 0 0.384280834
0 0 0.375286634
0 0 0.367469929
0 0 0.360817831
0 0 0.355331528
0 0 0.351018846
0 0 0.347884991
0 0 0.345929850
0 0 0.345150845
0 0 0.345546331
0 0 0.347116552
0 0 0.349862580
0 0 0.353785093
0 0 0.358884054
0 0 0.365159114
0 0 0.372610064
0 0 0.381236949
0 0 0.391039916
0 0 0.402019051
0 0 0.414174349
0 0 0.427505761
0 0 0.442013261
0 0 0.457696857
0 0 0.474556568
0 0 0.492592406
0 0 0.511804371
0 0 0.532192456
0 0 0.553756657
0 0 0.576496972
0 0 0.600413402
0 0 0.625505951
0 0 0.651774626
0 0 0.679219430
0 0 0.707840351
0 0 0.737637367
0 0 0.768610464
0 0 0.800759667
0 0 0.834085028
0 0 0.868586569
0 0 0.904264207
0 0 0.941117774
0 0 0.979147183
0 0 1.018352623
0 0 1.058734492
0 0 1.100292932
0 0 1.143027298
0 0 1.186936349
0 0 1.232019527
0 0 1.278278348
0 0 1.325715800
0 0 1.374332765
0 0 1.424124242
0 0 1.475081098
0 0 1.527199825
0 0 1.580492523
0 0 1.634981459
0 0 1.690671903
0 0 1.747525108
0 0 1.805473983
0 0 1.864497282
0 0 1.924690846
0 0 1.986220038
0 0 2.049113745
0 0 2.113072076
0 0 2.177602884
0 0 2.242585047
0 0 2.308776883
0 0 2.377412491
0 0 2.448641654
0 0 2.520141416
0 0 2.588186313
0 0 2.651716483
0 0 2.715742859
0 0 2.788324457
0 0 2.871088169
0 0 2.957073748
0 0 3.000000000
0 0 1.000000000
0 0 0.926807051
0 0 0.832897490
0 0 0.826133511
0 0 0.845786276
0 0 0.841011147
0 0 0.806296180
0 0 0.762756271
0 0 0.728046060
0 0 0.704024469
0 0 0.683210732
0 0 0.659575905
0 0 0.632841450
0 0 0.606002576
0 0 0.581395302
0 0 0.559196886
0 0 0.538383500
0 0 0.518175466
0 0 0.498569937
0 0 0.479980505
0 0 0.462712832
0 0 0.446780398
0 0 0.432043376
0 0 0.418401293
0 0 0.405858386
0 0 0.394471611
0 0 0.384280890
0 0 0.375286688
0 0 0.367469981
0 0 0.360817881
0 0 0.355331577
0 0 0.351018893
0 0 0.347885036
0 0 0.345929894
0 0 0.345150888
0 0 0.345546374
0 0 0.347116594
0 0 0.349862621
0 0 0.353785134
0 0 0.358884094
0 0 0.365159154
0 0 0.372610104
0 0 0.381236989
0 0 0.391039956
0 0 0.402019092
0 0 0.414174390
0 0 0.427505803
0 0 0.442013304
0 0 0.457696901
0 0 0.474556613
0 0 0.492592452
0 0 0.511804418
0 0 0.532192505
0 0 0.553756707
0 0 0.576497024
0 0 0.600413456
0 0 0.625506007
0 0 0.651774684
0 0 0.679219489
0 0 0.707840412
0 0 0.737637430
0 0 0.768610530
0 0 0.800759735
0 0 0.834085098
0 0 0.868586642
0 0 0.904264282
0 0 0.941117852
0 0 0.979147263
0 0 1.018352705
0 0 1.058734577
0 0 1.100293019
0 0 1.143027388
0 0 1.186936442
0 0 1.232019622
0 0 1.278278447
0 0 1.325715902
0 0 1.374332870
0 0 1.424124352
0 0 1.475081213
0 0 1.527199946
0 0 1.580492651
0 0 1.634981595
0 0 1.690672049
0 0 1.747525266
0 0 1.805474155
0 0 1.864497469
0 0 1.924691051
0 0 1.986220265
0 0 2.049113995
0 0 2.113072350
0 0 2.177603178
0 0 2.242585355
0 0 2.308777201
0 0 2.377412816
0 0 2.448641989
0 0 2.520141726
0 0 2.588186424
0 0 2.651716136
0 0 2.715742419
0 0 2.788325280
0 0 2.871089239
0 0 2.957072218
0 0 3.000000000
0 0 1.000000000
0 0 0.926808679
0 0 0.832900613
0 0 0.826137152
0 0 0.845788134
0 0 0.841011534
0 0 0.806296556
0 0 0.762756192
0 0 0.728045759
0 0 0.704024085
0 0 0.683210388
0 0 0.659575599
0 0 0.632841167
0 0 0.606002303
0 0 0.581395037
0 0 0.559196634
0 0 0.538383264
0 0 0.518175249
0 0 0.498569736
0 0 0.479980318
0 0 0.462712657
0 0 0.446780233
0 0 0.432043220
0 0 0.418401147
0 0 0.405858249
0 0 0.394471481
0 0 0.384280767
0 0 0.375286571
0 0 0.367469870
0 0 0.360817775
0 0 0.355331475
0 0 0.351018796
0 0 0.347884942
0 0 0.345929803
0 0 0.345150800
0 0 0.345546288
0 0 0.347116510
0 0 0.349862540
0 0 0.353785053
0 0 0.358884015
0 0 0.365159075
0 0 0.372610026
0 0 0.381236911
0 0 0.391039878
0 0 0.402019013
0 0 0.414174310
0 0 0.427505722
0 0 0.442013222
0 0 0.457696817
0 0 0.474556528
0 0 0.492592365
0 0 0.511804329
0 0 0.532192413
0 0 0.553756613
0 0 0.576496926
0 0 0.600413355
0 0 0.625505903
0 0 0.651774577
0 0 0.679219379
0 0 0.707840298
0 0 0.737637312
0 0 0.768610408
0 0 0.800759609
0 0 0.834084968
0 0 0.868586507
0 0 0.904264144
0 0 0.941117709
0 0 0.979147116
0 0 1.018352553
0 0 1.058734421
0 0 1.100292859
0 0 1.143027224
0 0 1.186936274
0 0 1.232019451
0 0 1.278278271
0 0 1.325715723
0 0 1.374332688
0 0 1.424124167
0 0 1.475081025
0 0 1.527199755
0 0 1.580492458
0 0 1.634981401
0 0 1.690671854
0 0 1.747525070
0 0 1.805473959
0 0 1.864497274
0 0 1.924690860
0 0 1.986220079
0 0 2.049113815
0 0 2.113072175
0 0 2.177603007
0 0 2.242585191
0 0 2.308777054
0 0 2.377412702
0 0 2.448641914
0 0 2.520141663
0 0 2.588186330
0 0 2.651715935
0 0 2.715741653
0 0 2.788322945
0 0 2.871086653
0 0 2.957073770
0 0 3.000000000
0 0 1.000000000
0 0 0.926805382
0 0 0.832895152
0 0 0.826132055
0 0 0.845786095
0 0 0.841012541
0 0 0.806297202
0 0 0.762756948
0 0 0.728046515
0 0 0.704024935
0 0 0.683211236
0 0 0.659576431
0 0 0.632841965
0 0 0.606003062
0 0 0.581395748
0 0 0.559197295
0 0 0.538383878
0 0 0.518175821
0 0 0.498570272
0 0 0.479980819
0 0 0.462713125
0 0 0.446780670
0 0 0.432043628
0 0 0.418401530
0 0 0.405858609
0 0 0.394471821
0 0 0.384281087
0 0 0.375286874
0 0 0.367470157
0 0 0.360818048
0 0 0.355331736
0 0 0.351019045
0 0 0.347885181
0 0 0.345930033
0 0 0.345151022
0 0 0.345546503
0 0 0.347116720
0 0 0.349862744
0 0 0.353785254
0 0 0.358884212
0 0 0.365159270
0 0 0.372610220
0 0 0.381237104
0 0 0.391040071
0 0 0.402019207
0 0 0.414174506
0 0 0.427505920
0 0 0.442013422
0 0 0.457697021
0 0 0.474556736
0 0 0.492592577
0 0 0.511804546
0 0 0.532192636
0 0 0.553756842
0 0 0.576497163
0 0 0.600413599
0 0 0.625506154
0 0 0.651774836
0 0 0.679219647
0 0 0.707840575
0 0 0.737637598
0 0 0.768610704
0 0 0.800759915
0 0 0.834085285
0 0 0.868586835
0 0 0.904264482
0 0 0.941118058
0 0 0.979147477
0 0 1.018352926
0 0 1.058734805
0 0 1.100293255
0 0 1.143027631
0 0 1.186936691
0 0 1.232019879
0 0 1.278278710
0 0 1.325716171
0 0 1.374333145
0 0 1.424124631
0 0 1.475081494
0 0 1.527200228
0 0 1.580492933
0 0 1.634981874
0 0 1.690672321
0 0 1.747525525
0 0 1.805474395
0 0 1.864497685
0 0 1.924691235
0 0 1.986220408
0 0 2.049114080
0 0 2.113072355
0 0 2.177603078
0 0 2.242585127
0 0 2.308776827
0 0 2.377412281
0 0 2.448641264
0 0 2.520140751
0 0 2.588185070
0 0 2.651714072
0 0 2.715739137
0 0 2.788321486
0 0 2.871088057
0 0 2.957069754
0 0 3.000000000
0 0 1.000000000
0 0 0.926809383
0 0 0.832895827
0 0 0.826131242
0 0 0.845786765
0 0 0.841009139
0 0 0.806294702
0 0 0.762754527
0 0 0.728044443
0 0 0.704022773
0 0 0.683209057
0 0 0.659574306
0 0 0.632839993
0 0 0.606001245
0 0 0.581394054
0 0 0.559195695
0 0 0.538382369
0 0 0.518174409
0 0 0.498568958
0 0 0.479979594
0 0 0.462711976
0 0 0.446779590
0 0 0.432042613
0 0 0.418400576
0 0 0.405857711
0 0 0.394470974
0 0 0.384280287
0 0 0.375286115
0 0 0.367469435
0 0 0.360817360
0 0 0.355331078
0 0 0.351018415
0 0 0.347884575
0 0 0.345929448
0 0 0.345150455
0 0 0.345545952
0 0 0.347116181
0 0 0.349862215
0 0 0.353784733
0 0 0.358883696
0 0 0.365158757
0 0 0.372609708
0 0 0.381236591
0 0 0.391039555
0 0 0.402018686
0 0 0.414173977
0 0 0.427505382
0 0 0.442012874
0 0 0.457696460
0 0 0.474556160
0 0 0.492591986
0 0 0.511803937
0 0 0.532192007
0 0 0.553756191
0 0 0.576496489
0 0 0.600412900
0 0 0.625505429
0 0 0.651774083
0 0 0.679218864
0 0 0.707839761
0 0 0.737636752
0 0 0.768609823
0 0 0.800758998
0 0 0.834084330
0 0 0.868585841
0 0 0.904263447
0 0 0.941116981
0 0 0.979146355
0 0 1.018351759
0 0 1.058733591
0 0 1.100291993
0 0 1.143026319
0 0 1.186935329
0 0 1.232018465
0 0 1.278277243
0 0 1.325714650
0 0 1.374331570
0 0 1.424123002
0 0 1.475079811
0 0 1.527198493
0 0 1.580491146
0 0 1.634980040
0 0 1.690670441
0 0 1.747523605
0 0 1.805472442
0 0 1.864495712
0 0 1.924689258
0 0 1.986218442
0 0 2.049112145
0 0 2.113070475
0 0 2.177601297
0 0 2.242583510
0 0 2.308775444
0 0 2.377411191
0 0 2.448640510
0 0 2.520140427
0 0 2.588185496
0 0 2.651715999
0 0 2.715742797
0 0 2.788322832
0 0 2.871080939
0 0 2.957079925
0 0 3.000000000
0 0 1.000000000
0 0 0.926810103
0 0 0.832900595
0 0 0.826141296
0 0 0.845786479
0 0 0.841012050
0 0 0.806296417
0 0 0.762757275
0 0 0.728047039
0 0 0.704025277
0 0 0.683211244
0 0 0.659576302
0 0 0.632841847
0 0 0.606002987
0 0 0.581395665
0 0 0.559197164
0 0 0.538383703
0 0 0.518175625
0 0 0.498570071
0 0 0.479980612
0 0 0.462712905
0 0 0.446780433
0 0 0.432043379
0 0 0.418401271
0 0 0.405858342
0 0 0.394471546
0 0 0.384280804
0 0 0.375286582
0 0 0.367469856
0 0 0.360817739
0 0 0.355331419
0 0 0.351018720
0 0 0.347884847
0 0 0.345929690
0 0 0.345150669
0 0 0.345546140
0 0 0.347116345
0 0 0.349862358
0 0 0.353784855
0 0 0.358883800
0 0 0.365158844
0 0 0.372609779
0 0 0.381236648
0 0 0.391039597
0 0 0.402018716
0 0 0.414173995
0 0 0.427505389
0 0 0.442012871
0 0 0.457696448
0 0 0.474556139
0 0 0.492591957
0 0 0.511803900
0 0 0.532191963
0 0 0.553756142
0 0 0.576496434
0 0 0.600412840
0 0 0.625505365
0 0 0.651774015
0 0 0.679218792
0 0 0.707839687
0 0 0.737636675
0 0 0.768609744
0 0 0.800758919
0 0 0.834084251
0 0 0.868585762
0 0 0.904263369
0 0 0.941116905
0 0 0.979146282
0 0 1.018351689
0 0 1.058733526
0 0 1.100291932
0 0 1.143026264
0 0 1.186935281
0 0 1.232018424
0 0 1.278277210
0 0 1.325714626
0 0 1.374331555
0 0 1.424122996
0 0 1.475079815
0 0 1.527198507
0 0 1.580491170
0 0 1.634980071
0 0 1.690670478
0 0 1.747523644
0 0 1.805472481
0 0 1.864495744
0 0 1.924689278
0 0 1.986218437
0 0 2.049112097
0 0 2.113070363
0 0 2.177601100
0 0 2.242583206
0 0 2.308774992
0 0 2.377410515
0 0 2.448639515
0 0 2.520139039
0 0 2.588183666
0 0 2.651713551
0 0 2.715739918
0 0 2.788322040
0 0 2.871081770
0 0 2.957074440
0 0 3.000000000
0 0 1.000000000
0 0 0.926808887
0 0 0.832899034
0 0 0.826131049
0 0 0.845784676
0 0 0.841006182
0 0 0.806292691
0 0 0.762753427
0 0 0.728043850
0 0 0.704022208
0 0 0.683208405
0 0 0.659573645