# vtk DataFile Version 2.0
Hex test
ASCII
DATASET UNSTRUCTURED_GRID
POINTS 3600 float
0 0.000000000 0.000000000
0.059895800 0.000000000 0.000000000
0.000000000 0.059895800 0.000000000
0.059895800 0.059895800 0.000000000
0.059895800 0.000000000 0.000000000
0.093750000 0.000000000 0.000000000
0.059895800 0.059895800 0.000000000
0.093750000 0.059895800 0.000000000
0.093750000 0.000000000 0.000000000
0.125000000 0.000000000 0.000000000
0.093750000 0.059895800 0.000000000
0.125000000 0.059895800 0.000000000
0.125000000 0.000000000 0.000000000
0.156250000 0.000000000 0.000000000
0.125000000 0.059895800 0.000000000
0.156250000 0.059895800 0.000000000
0.156250000 0.000000000 0.000000000
0.187500000 0.000000000 0.000000000
0.156250000 0.059895800 0.000000000
0.187500000 0.059895800 0.000000000
0.187500000 0.000000000 0.000000000
0.218750000 0.000000000 0.000000000
0.187500000 0.059895800 0.000000000
0.218750000 0.059895800 0.000000000
0.218750000 0.000000000 0.000000000
0.250000000 0.000000000 0.000000000
0.218750000 0.059895800 0.000000000
0.250000000 0.059895800 0.000000000
0.250000000 0.000000000 0.000000000
0.281250000 0.000000000 0.000000000
0.250000000 0.059895800 0.000000000
0.281250000 0.059895800 0.000000000
0.281250000 0.000000000 0.000000000
0.312500000 0.000000000 0.000000000
0.281250000 0.059895800 0.000000000
0.312500000 0.059895800 0.000000000
0.312500000 0.000000000 0.000000000
0.343750000 0.000000000 0.000000000
0.312500000 0.059895800 0.000000000
0.343750000 0.059895800 0.000000000
0.343750000 0.000000000 0.000000000
0.375000000 0.000000000 0.000000000
0.343750000 0.059895800 0.000000000
0.375000000 0.059895800 0.000000000
0.375000000 0.000000000 0.000000000
0.406250000 0.000000000 0.000000000
0.375000000 0.059895800 0.000000000
0.406250000 0.059895800 0.000000000
0.406250000 0.000000000 0.000000000
0.437500000 0.000000000 0.000000000
0.406250000 0.059895800 0.000000000
0.437500000 0.059895800 0.000000000
0.437500000 0.000000000 0.000000000
0.468750000 0.000000000 0.000000000
0.437500000 0.059895800 0.000000000
0.468750000 0.059895800 0.000000000
0.468750000 0.000000000 0.000000000
0.500000000 0.000000000 0.000000000
0.468750000 0.059895800 0.000000000
0.500000000 0.059895800 0.000000000
0.500000000 0.000000000 0.000000000
0.531250000 0.000000000 0.000000000
0.500000000 0.059895800 0.000000000
0.531250000 0.059895800 0.000000000
0.531250000 0.000000000 0.000000000
0.562500000 0.000000000 0.000000000
0.531250000 0.059895800 0.000000000
0.562500000 0.059895800 0.000000000
0.562500000 0.000000000 0.000000000
0.593750000 0.000000000 0.000000000
0.562500000 0.059895800 0.000000000
0.593750000 0.059895800 0.000000000
0.593750000 0.000000000 0.000000000
0.625000000 0.000000000 0.000000000
0.593750000 0.059895800 0.000000000
0.625000000 0.059895800 0.000000000
0.625000000 0.000000000 0.000000000
0.656250000 0.000000000 0.000000000
0.625000000 0.059895800 0.000000000
0.656250000 0.059895800 0.000000000
0.656250000 0.000000000 0.000000000
0.687500000 0.000000000 0.000000000
0.656250000 0.059895800 0.000000000
0.687500000 0.059895800 0.000000000
0.687500000 0.000000000 0.000000000
0.718750000 0.000000000 0.000000000
0.687500000 0.059895800 0.000000000
0.718750000 0.059895800 0.000000000
0.718750000 0.000000000 0.000000000
0.750000000 0.000000000 0.000000000
0.718750000 0.059895800 0.000000000
0.750000000 0.059895800 0.000000000
0.750000000 0.000000000 0.000000000
0.781250000 0.000000000 0.000000000
0.750000000 0.059895800 0.000000000
0.781250000 0.059895800 0.000000000
0.781250000 0.000000000 0.000000000
0.812500000 0.000000000 0.000000000
0.781250000 0.059895800 0.000000000
0.812500000 0.059895800 0.000000000
0.812500000 0.000000000 0.000000000
0.843750000 0.000000000 0.000000000
0.812500000 0.059895800 0.000000000
0.843750000 0.059895800 0.000000000
0.843750000 0.000000000 0.000000000
0.875000000 0.000000000 0.000000000
0.843750000 0.059895800 0.000000000
0.875000000 0.059895800 0.000000000
0.875000000 0.000000000 0.000000000
0.906250000 0.000000000 0.000000000
0.875000000 0.059895800 0.000000000
0.906250000 0.059895800 0.000000000
0.906250000 0.000000000 0.000000000
0.940104000 0.000000000 0.000000000
0.906250000 0.059895800 0.000000000
0.940104000 0.059895800 0.000000000
0.940104000 0.000000000 0.000000000
1.000000000 0.000000000 0.000000000
0.940104000 0.059895800 0.000000000
1.000000000 0.059895800 0.000000000
0.000000000 0.059895800 0.000000000
0.059895800 0.059895800 0.000000000
0.000000000 0.093750000 0.000000000
0.059895800 0.093750000 0.000000000
0.059895800 0.059895800 0.000000000
0.093750000 0.059895800 0.000000000
0.059895800 0.093750000 0.000000000
0.093750000 0.093750000 0.000000000
0.093750000 0.059895800 0.000000000
0.125000000 0.059895800 0.000000000
0.093750000 0.093750000 0.000000000
0.125000000 0.093750000 0.000000000
0.125000000 0.059895800 0.000000000
0.156250000 0.059895800 0.000000000
0.125000000 0.093750000 0.000000000
0.156250000 0.093750000 0.000000000
0.156250000 0.059895800 0.000000000
0.187500000 0.059895800 0.000000000
0.156250000 0.093750000 0.000000000
0.187500000 0.093750000 0.000000000
0.187500000 0.059895800 0.000000000
0.218750000 0.059895800 0.000000000
0.187500000 0.093750000 0.000000000
0.218750000 0.093750000 0.000000000
0.218750000 0.059895800 0.000000000
0.250000000 0.059895800 0.000000000
0.218750000 0.093750000 0.000000000
0.250000000 0.093750000 0.000000000
0.250000000 0.059895800 0.000000000
0.281250000 0.059895800 0.000000000
0.250000000 0.093750000 0.000000000
0.281250000 0.093750000 0.000000000
0.281250000 0.059895800 0.000000000
0.312500000 0.059895800 0.000000000
0.281250000 0.093750000 0.000000000
0.312500000 0.093750000 0.000000000
0.312500000 0.059895800 0.000000000
0.343750000 0.059895800 0.000000000
0.312500000 0.093750000 0.000000000
0.343750000 0.093750000 0.000000000
0.343750000 0.059895800 0.000000000
0.375000000 0.059895800 0.000000000
0.343750000 0.093750000 0.000000000
0.375000000 0.093750000 0.000000000
0.375000000 0.059895800 0.000000000
0.406250000 0.059895800 0.000000000
0.375000000 0.093750000 0.000000000
0.406250000 0.093750000 0.000000000
0.406250000 0.059895800 0.000000000
0.437500000 0.059895800 0.000000000
0.406250000 0.093750000 0.000000000
0.437500000 0.093750000 0.000000000
0.437500000 0.059895800 0.000000000
0.468750000 0.059895800 0.000000000
0.437500000 0.093750000 0.000000000
0.468750000 0.093750000 0.000000000
0.468750000 0.059895800 0.000000000
0.500000000 0.059895800 0.000000000
0.468750000 0.093750000 0.000000000
0.500000000 0.093750000 0.000000000
0.500000000 0.059895800 0.000000000
0.531250000 0.059895800 0.000000000
0.500000000 0.093750000 0.000000000
0.531250000 0.093750000 0.000000000
0.531250000 0.059895800 0.000000000
0.562500000 0.059895800 0.000000000
0.531250000 0.093750000 0.000000000
0.562500000 0.093750000 0.000000000
0.562500000 0.059895800 0.000000000
0.593750000 0.059895800 0.000000000
0.562500000 0.093750000 0.000000000
0.593750000 0.093750000 0.000000000
0.593750000 0.059895800 0.000000000
0.625000000 0.059895800 0.000000000
0.593750000 0.093750000 0.000000000
0.625000000 0.093750000 0.000000000
0.625000000 0.059895800 0.000000000
0.656250000 0.059895800 0.000000000
0.625000000 0.093750000 0.000000000
0.656250000 0.093750000 0.000000000
0.656250000 0.059895800 0.000000000
0.687500000 0.059895800 0.000000000
0.656250000 0.093750000 0.000000000
0.687500000 0.093750000 0.000000000
0.687500000 0.059895800 0.000000000
0.718750000 0.059895800 0.000000000
0.687500000 0.093750000 0.000000000
0.718750000 0.093750000 0.000000000
0.718750000 0.059895800 0.000000000
0.750000000 0.059895800 0.000000000
0.718750000 0.093750000 0.000000000
0.750000000 0.093750000 0.000000000
0.750000000 0.059895800 0.000000000
0.781250000 0.059895800 0.000000000
0.750000000 0.093750000 0.000000000
0.781250000 0.093750000 0.000000000
0.781250000 0.059895800 0.000000000
0.812500000 0.059895800 0.000000000
0.781250000 0.093750000 0.000000000
0.812500000 0.093750000 0.000000000
0.812500000 0.059895800 0.000000000
0.843750000 0.059895800 0.000000000
0.812500000 0.093750000 0.000000000
0.843750000 0.093750000 0.000000000
0.843750000 0.059895800 0.000000000
0.875000000 0.059895800 0.000000000
0.843750000 0.093750000 0.000000000
0.875000000 0.093750000 0.000000000
0.875000000 0.059895800 0.000000000
0.906250000 0.059895800 0.000000000
0.875000000 0.093750000 0.000000000
0.906250000 0.093750000 0.000000000
0.906250000 0.059895800 0.000000000
0.940104000 0.059895800 0.000000000
0.906250000 0.093750000 0.000000000
0.940104000 0.093750000 0.000000000
0.940104000 0.059895800 0.000000000
1.000000000 0.059895800 0.000000000
0.940104000 0.093750000 0.000000000
1.000000000 0.093750000 0.000000000
0.000000000 0.093750000 0.000000000
0.059895800 0.093750000 0.000000000
0.000000000 0.125000000 0.000000000
0.059895800 0.125000000 0.000000000
0.059895800 0.093750000 0.000000000
0.093750000 0.093750000 0.000000000
0.059895800 0.125000000 0.000000000
0.093750000 0.125000000 0.000000000
0.093750000 0.093750000 0.000000000
0.125000000 0.093750000 0.000000000
0.093750000 0.125000000 0.000000000
0.125000000 0.125000000 0.000000000
0.125000000 0.093750000 0.000000000
0.156250000 0.093750000 0.000000000
0.125000000 0.125000000 0.000000000
0.156250000 0.125000000 0.000000000
0.156250000 0.093750000 0.000000000
0.187500000 0.093750000 0.000000000
0.156250000 0.125000000 0.000000000
0.187500000 0.125000000 0.000000000
0.187500000 0.093750000 0.000000000
0.218750000 0.093750000 0.000000000
0.187500000 0.125000000 0.000000000
0.218750000 0.125000000 0.000000000
0.218750000 0.093750000 0.000000000
0.250000000 0.093750000 0.000000000
0.218750000 0.125000000 0.000000000
0.250000000 0.125000000 0.000000000
0.250000000 0.093750000 0.000000000
0.281250000 0.093750000 0.000000000
0.250000000 0.125000000 0.000000000
0.281250000 0.125000000 0.000000000
0.281250000 0.093750000 0.000000000
0.312500000 0.093750000 0.000000000
0.281250000 0.125000000 0.000000000
[...]
POINT_DATA 3600
VECTORS y float
0.000000000 0 0
1.000000000 0 0
0.000000000 0 0
0.377399944 0 0
1.000000000 0 0
1.000001000 0 0
0.377399944 0 0
0.510997094 0 0
1.000001000 0 0
1.000001000 0 0
0.510997094 0 0
0.567374901 0 0
1.000001000 0 0
1.000001000 0 0
0.567374901 0 0
0.585899155 0 0
1.000001000 0 0
1.000001000 0 0
0.585899155 0 0
0.588162194 0 0
1.000001000 0 0
1.000001000 0 0
0.588162194 0 0
0.583714552 0 0
1.000001000 0 0
1.000001000 0 0
0.583714552 0 0
0.576253413 0 0
1.000001000 0 0
1.000001000 0 0
0.576253413 0 0
0.565955575 0 0
1.000001000 0 0
1.000001000 0 0
0.565955575 0 0
0.551552764 0 0
1.000001000 0 0
1.000001000 0 0
0.551552764 0 0
0.530913009 0 0
1.000001000 0 0
1.000001000 0 0
0.530913009 0 0
0.501205670 0 0
1.000001000 0 0
1.000001000 0 0
0.501205670 0 0
0.458977821 0 0
1.000001000 0 0
1.000001000 0 0
0.458977821 0 0
0.400520091 0 0
1.000001000 0 0
1.000001000 0 0
0.400520091 0 0
0.323332651 0 0
1.000001000 0 0
0.833334000 0 0
0.323332651 0 0
0.229881104 0 0
0.833334000 0 0
0.166667000 0 0
0.229881104 0 0
0.135486103 0 0
0.166667000 0 0
0.000000000 0 0
0.135486103 0 0
0.064107777 0 0
0.000000000 0 0
0.000000000 0 0
0.064107777 0 0
0.023702126 0 0
0.000000000 0 0
0.000000000 0 0
0.023702126 0 0
0.005834921 0 0
0.000000000 0 0
0.000000000 0 0
0.005834921 0 0
-0.000152523 0 0
0.000000000 0 0
0.000000000 0 0
-0.000152523 0 0
-0.001294498 0 0
0.000000000 0 0
0.000000000 0 0
-0.001294498 0 0
-0.000997463 0 0
0.000000000 0 0
0.000000000 0 0
-0.000997463 0 0
-0.000529992 0 0
0.000000000 0 0
0.000000000 0 0
-0.000529992 0 0
-0.000217342 0 0
0.000000000 0 0
0.000000000 0 0
-0.000217342 0 0
-0.000062977 0 0
0.000000000 0 0
0.000000000 0 0
-0.000062977 0 0
-0.000004416 0 0
0.000000000 0 0
0.000000000 0 0
-0.000004416 0 0
0.000010122 0 0
0.000000000 0 0
0.000000000 0 0
0.000010122 0 0
0.000009411 0 0
0.000000000 0 0
0.000000000 0 0
0.000009411 0 0
0.000005350 0 0
0.000000000 0 0
0.000000000 0 0
0.000005350 0 0
0.000000000 0 0
0.000000000 0 0
0.377399944 0 0
0.000000000 0 0
0.385841728 0 0
0.377399944 0 0
0.510997094 0 0
0.385841728 0 0
0.574917311 0 0
0.510997094 0 0
0.567374901 0 0
0.574917311 0 0
0.689931736 0 0
0.567374901 0 0
0.585899155 0 0
0.689931736 0 0
0.751866635 0 0
0.585899155 0 0
0.588162194 0 0
0.751866635 0 0
0.777426280 0 0
0.588162194 0 0
0.583714552 0 0
0.777426280 0 0
0.782392560 0 0
0.583714552 0 0
0.576253413 0 0
0.782392560 0 0
0.776996437 0 0
0.576253413 0 0
0.565955575 0 0
0.776996437 0 0
0.765635750 0 0
0.565955575 0 0
0.551552764 0 0
0.765635750 0 0
0.748959288 0 0
0.551552764 0 0
0.530913009 0 0
0.748959288 0 0
0.725259799 0 0
0.530913009 0 0
0.501205670 0 0
0.725259799 0 0
0.691401013 0 0
0.501205670 0 0
0.458977821 0 0
0.691401013 0 0
0.643170260 0 0
0.458977821 0 0
0.400520091 0 0
0.643170260 0 0
0.575791672 0 0
0.400520091 0 0
0.323332651 0 0
0.575791672 0 0
0.485431208 0 0
0.323332651 0 0
0.229881104 0 0
0.485431208 0 0
0.373253719 0 0
0.229881104 0 0
0.135486103 0 0
0.373253719 0 0
0.253181611 0 0
0.135486103 0 0
0.064107777 0 0
0.253181611 0 0
0.149463198 0 0
0.064107777 0 0
0.023702126 0 0
0.149463198 0 0
0.075960753 0 0
0.023702126 0 0
0.005834921 0 0
0.075960753 0 0
0.032165011 0 0
0.005834921 0 0
-0.000152523 0 0
0.032165011 0 0
0.010282979 0 0
-0.000152523 0 0
-0.001294498 0 0
0.010282979 0 0
0.001405335 0 0
-0.001294498 0 0
-0.000997463 0 0
0.001405335 0 0
-0.001157919 0 0
-0.000997463 0 0
-0.000529992 0 0
-0.001157919 0 0
-0.001303214 0 0
-0.000529992 0 0
-0.000217342 0 0
-0.001303214 0 0
-0.000840656 0 0
-0.000217342 0 0
-0.000062977 0 0
-0.000840656 0 0
-0.000417315 0 0
-0.000062977 0 0
-0.000004416 0 0
-0.000417315 0 0
-0.000165114 0 0
-0.000004416 0 0
0.000010122 0 0
-0.000165114 0 0
-0.000048042 0 0
0.000010122 0 0
0.000009411 0 0
-0.000048042 0 0
-0.000005384 0 0
0.000009411 0 0
0.000005350 0 0
-0.000005384 0 0
0.000005483 0 0
0.000005350 0 0
0.000000000 0 0
0.000005483 0 0
0.000000000 0 0
0.000000000 0 0
0.385841728 0 0
0.000000000 0 0
0.384834378 0 0
0.385841728 0 0
0.574917311 0 0
0.384834378 0 0
0.573755390 0 0
0.574917311 0 0
0.689931736 0 0
0.573755390 0 0
0.705976753 0 0
0.689931736 0 0
0.751866635 0 0
0.705976753 0 0
0.794885755 0 0
0.751866635 0 0
0.777426280 0 0
0.794885755 0 0
0.846790421 0 0
0.777426280 0 0
0.782392560 0 0
0.846790421 0 0
0.870083611 0 0
0.782392560 0 0
0.776996437 0 0
0.870083611 0 0
0.874626955 0 0
0.776996437 0 0
0.765635750 0 0
0.874626955 0 0
0.867294860 0 0
0.765635750 0 0
0.748959288 0 0
0.867294860 0 0
0.851477393 0 0
0.748959288 0 0
0.725259799 0 0
0.851477393 0 0
0.827293678 0 0
0.725259799 0 0
0.691401013 0 0
0.827293678 0 0
0.792444054 0 0
0.691401013 0 0
0.643170260 0 0
0.792444054 0 0
0.742886739 0 0
0.643170260 0 0
0.575791672 0 0
0.742886739 0 0
0.673559332 0 0
0.575791672 0 0
0.485431208 0 0
0.673559332 0 0
0.579971346 0 0
0.485431208 0 0
0.373253719 0 0
0.579971346 0 0
0.462317263 0 0
0.373253719 0 0
0.253181611 0 0
0.462317263 0 0
0.333924928 0 0
0.253181611 0 0
0.149463198 0 0
0.333924928 0 0
0.218883054 0 0
0.149463198 0 0
0.075960753 0 0
0.218883054 0 0
0.130650020 0 0
0.075960753 0 0
0.032165011 0 0
0.130650020 0 0
0.069956690 0 0
0.032165011 0 0
0.010282979 0 0
0.069956690 0 0
0.032546019 0 0
0.010282979 0 0
0.001405335 0 0
0.032546019 0 0
0.012260740 0 0
0.001405335 0 0
-0.001157919 0 0
0.012260740 0 0
0.002906396 0 0
-0.001157919 0 0
-0.001303214 0 0
0.002906396 0 0
-0.000482225 0 0
-0.001303214 0 0
-0.000840656 0 0
-0.000482225 0 0
-0.001169453 0 0
-0.000840656 0 0
-0.000417315 0 0
-0.001169453 0 0
-0.000930263 0 0
-0.000417315 0 0
-0.000165114 0 0
-0.000930263 0 0
-0.000546080 0 0
-0.000165114 0 0
-0.000048042 0 0
-0.000546080 0 0
-0.000264779 0 0
-0.000048042 0 0
-0.000005384 0 0
-0.000264779 0 0
-0.000108998 0 0
-0.000005384 0 0
0.000005483 0 0
-0.000108998 0 0
-0.000032858 0 0
0.000005483 0 0
0.000000000 0 0
-0.000032858 0 0
0.000000000 0 0
0.000000000 0 0
0.384834378 0 0
0.000000000 0 0
0.380385826 0 0
0.384834378 0 0
0.573755390 0 0
0.380385826 0 0
0.569662372 0 0
0.573755390 0 0
0.705976753 0 0
0.569662372 0 0
0.700707307 0 0
0.705976753 0 0
0.794885755 0 0
0.700707307 0 0
0.795077243 0 0
0.794885755 0 0
0.846790421 0 0
0.795077243 0 0
0.858766905 0 0
0.846790421 0 0
0.870083611 0 0
0.858766905 0 0
0.896544063 0 0
0.870083611 0 0
0.874626955 0 0
0.896544063 0 0
0.913433929 0 0
0.874626955 0 0
0.867294860 0 0
0.913433929 0 0
0.914314434 0 0
0.867294860 0 0
0.851477393 0 0
0.914314434 0 0
0.902798667 0 0
0.851477393 0 0
0.827293678 0 0
0.902798667 0 0
0.880281059 0 0
0.827293678 0 0
0.792444054 0 0
0.880281059 0 0
0.845723136 0 0
0.792444054 0 0
0.742886739 0 0
0.845723136 0 0
0.795919072 0 0
0.742886739 0 0
0.673559332 0 0
0.795919072 0 0
0.726225717 0 0
0.673559332 0 0
0.579971346 0 0
0.726225717 0 0
0.632274959 0 0
0.579971346 0 0
0.462317263 0 0
0.632274959 0 0
0.514093603 0 0
0.462317263 0 0
0.333924928 0 0
0.514093603 0 0
0.384283273 0 0
0.333924928 0 0
0.218883054 0 0
0.384283273 0 0
0.266091666 0 0
0.218883054 0 0
0.130650020 0 0
0.266091666 0 0
0.172781934 0 0
0.130650020 0 0
0.069956690 0 0
0.172781934 0 0
0.105015467 0 0
0.069956690 0 0
0.032546019 0 0
0.105015467 0 0
0.058837213 0 0
0.032546019 0 0
0.012260740 0 0
0.058837213 0 0
0.029547062 0 0
0.012260740 0 0
0.002906396 0 0
0.029547062 0 0
0.012632664 0 0
0.002906396 0 0
-0.000482225 0 0
0.012632664 0 0
0.004013460 0 0
-0.000482225 0 0
-0.001169453 0 0
0.004013460 0 0
0.000342189 0 0
-0.001169453 0 0
-0.000930263 0 0
0.000342189 0 0
-0.000783075 0 0
-0.000930263 0 0
-0.000546080 0 0
-0.000783075 0 0
-0.000839223 0 0
-0.000546080 0 0
-0.000264779 0 0
-0.000839223 0 0
-0.000587661 0 0
-0.000264779 0 0
-0.000108998 0 0
-0.000587661 0 0
-0.000337883 0 0
-0.000108998 0 0
-0.000032858 0 0
-0.000337883 0 0
-0.000156250 0 0
-0.000032858 0 0
0.000000000 0 0
-0.000156250 0 0
0.000000000 0 0
0.000000000 0 0
0.380385826 0 0
0.000000000 0 0
0.379727120 0 0
0.380385826 0 0
0.569662372 0 0
0.379727120 0 0
0.566669362 0 0
0.569662372 0 0
0.700707307 0 0
0.566669362 0 0
0.697205154 0 0
0.700707307 0 0
0.795077243 0 0
0.697205154 0 0
0.790226821 0 0
0.795077243 0 0
0.858766905 0 0
0.790226821 0 0
0.854967323 0 0
0.858766905 0 0
0.896544063 0 0
0.854967323 0 0
0.897119474 0 0
0.896544063 0 0
0.913433929 0 0
0.897119474 0 0
0.921013906 0 0
0.913433929 0 0
0.914314434 0 0
0.921013906 0 0
0.929167303 0 0
0.914314434 0 0
0.902798667 0 0
0.929167303 0 0
0.923457569 0 0
0.902798667 0 0
0.880281059 0 0
0.923457569 0 0
0.904656832 0 0
0.880281059 0 0
0.845723136 0 0
0.904656832 0 0
0.872025469 0 0
0.845723136 0 0
0.795919072 0 0
0.872025469 0 0
0.822993051 0 0
0.795919072 0 0
0.726225717 0 0
0.822993051 0 0
0.753484092 0 0
0.726225717 0 0
0.632274959 0 0
0.753484092 0 0
0.659474073 0 0
0.632274959 0 0
0.514093603 0 0
0.659474073 0 0
0.541171699 0 0
0.514093603 0 0
0.384283273 0 0
0.541171699 0 0
0.411333693 0 0
0.384283273 0 0
0.266091666 0 0
0.411333693 0 0
0.293036528 0 0
0.266091666 0 0
0.172781934 0 0
0.293036528 0 0
0.198944224 0 0
0.172781934 0 0
0.105015467 0 0
0.198944224 0 0
0.129339803 0 0
0.105015467 0 0
0.058837213 0 0
0.129339803 0 0
0.080143498 0 0
0.058837213 0 0
0.029547062 0 0
0.080143498 0 0
0.046673972 0 0
0.029547062 0 0
0.012632664 0 0
0.046673972 0 0
0.024960867 0 0
0.012632664 0 0
0.004013460 0 0
0.024960867 0 0
0.011796058 0 0
0.004013460 0 0
0.000342189 0 0
0.011796058 0 0
0.004542510 0 0
0.000342189 0 0
-0.000783075 0 0
0.004542510 0 0
0.001053133 0 0
-0.000783075 0 0
-0.000839223 0 0
0.001053133 0 0
-0.000299780 0 0
-0.000839223 0 0
-0.000587661 0 0
-0.000299780 0 0
-0.000614976 0 0
-0.000587661 0 0
-0.000337883 0 0
-0.000614976 0 0
-0.000530815 0 0
-0.000337883 0 0
-0.000156250 0 0
-0.000530815 0 0
-0.000335031 0 0
-0.000156250 0 0
0.000000000 0 0
-0.000335031 0 0
0.000000000 0 0
0.000000000 0 0
0.379727120 0 0
0.000000000 0 0
0.378653992 0 0
0.379727120 0 0
0.566669362 0 0
0.378653992 0 0
0.566002670 0 0
0.566669362 0 0
0.697205154 0 0
0.566002670 0 0
0.695370226 0 0
0.697205154 0 0
0.790226821 0 0
0.695370226 0 0
0.787706232 0 0
0.790226821 0 0
0.854967323 0 0
0.787706232 0 0
0.851307551 0 0
0.854967323 0 0
0.897119474 0 0
0.851307551 0 0
0.893120364 0 0
0.897119474 0 0
0.921013906 0 0
0.893120364 0 0
0.918199720 0 0
0.921013906 0 0
0.929167303 0 0
0.918199720 0 0
0.929273594 0 0
0.929167303 0 0
0.923457569 0 0
0.929273594 0 0
0.927326165 0 0
0.923457569 0 0
0.904656832 0 0
0.927326165 0 0
0.912087951 0 0
0.904656832 0 0
0.872025469 0 0
0.912087951 0 0
0.882135040 0 0
0.872025469 0 0
0.822993051 0 0
0.882135040 0 0
0.834762987 0 0
0.822993051 0 0
0.753484092 0 0
0.834762987 0 0
0.766125388 0 0
0.753484092 0 0
0.659474073 0 0
0.766125388 0 0
0.672545624 0 0
0.659474073 0 0
0.541171699 0 0
0.672545624 0 0
0.554488880 0 0
0.541171699 0 0
0.411333693 0 0
0.554488880 0 0
0.424802108 0 0
0.411333693 0 0
0.293036528 0 0
0.424802108 0 0
0.306663741 0 0
0.293036528 0 0
0.198944224 0 0
0.306663741 0 0
0.212797408 0 0
0.198944224 0 0
0.129339803 0 0
0.212797408 0 0
0.143238491 0 0
0.129339803 0 0
0.080143498 0 0
0.143238491 0 0
0.093606415 0 0
0.080143498 0 0
0.046673972 0 0
0.093606415 0 0
0.059058839 0 0
0.046673972 0 0
0.024960867 0 0
0.059058839 0 0
0.035551161 0 0
0.024960867 0 0
0.011796058 0 0
0.035551161 0 0
0.020037670 0 0
0.011796058 0 0
0.004542510 0 0
0.020037670 0 0
0.010277042 0 0
0.004542510 0 0
0.001053133 0 0
0.010277042 0 0
0.004561081 0 0
0.001053133 0 0
-0.000299780 0 0
0.004561081 0 0
0.001540175 0 0
-0.000299780 0 0
-0.000614976 0 0
0.001540175 0 0
0.000164952 0 0
-0.000614976 0 0
-0.000530815 0 0
0.000164952 0 0
-0.000318425 0 0
-0.000530815 0 0
-0.000335031 0 0
-0.000318425 0 0
-0.000376765 0 0
-0.000335031 0 0
0.000000000 0 0
-0.000376765 0 0
0.000000000 0 0
0.000000000 0 0
0.378653992 0 0
0.000000000 0 0
0.377979090 0 0
0.378653992 0 0
0.566002670 0 0
0.377979090 0 0
0.565228542 0 0
0.566002670 0 0
0.695370226 0 0
0.565228542 0 0
0.694980852 0 0
0.695370226 0 0
0.787706232 0 0
0.694980852 0 0
0.786846070 0 0
0.787706232 0 0
0.851307551 0 0
0.786846070 0 0
0.849954070 0 0
0.851307551 0 0
0.893120364 0 0
0.849954070 0 0
0.890962151 0 0
0.893120364 0 0
0.918199720 0 0
0.890962151 0 0
0.915446238 0 0
0.918199720 0 0
0.929273594 0 0
0.915446238 0 0
0.926549930 0 0
0.929273594 0 0
0.927326165 0 0
0.926549930 0 0
0.925593354 0 0
0.927326165 0 0
0.912087951 0 0
0.925593354 0 0
0.912083731 0 0
0.912087951 0 0
0.882135040 0 0
0.912083731 0 0
0.884102687 0 0
0.882135040 0 0
0.834762987 0 0
0.884102687 0 0
0.838458275 0 0
0.834762987 0 0
0.766125388 0 0
0.838458275 0 0
0.771048348 0 0
0.766125388 0 0
0.672545624 0 0
0.771048348 0 0
0.678184267 0 0
0.672545624 0 0
0.554488880 0 0
0.678184267 0 0
0.560494047 0 0
0.554488880 0 0
0.424802108 0 0
0.560494047 0 0
0.431034137 0 0
0.424802108 0 0
0.306663741 0 0
0.431034137 0 0
0.313080215 0 0
0.306663741 0 0
0.212797408 0 0
0.313080215 0 0
0.219395976 0 0
0.212797408 0 0
0.143238491 0 0
0.219395976 0 0
0.150082940 0 0
0.143238491 0 0
0.093606415 0 0
0.150082940 0 0
0.100692549 0 0
0.093606415 0 0
0.059058839 0 0
0.100692549 0 0
0.066211787 0 0
0.059058839 0 0
0.035551161 0 0
0.066211787 0 0
0.042460457 0 0
0.035551161 0 0
0.020037670 0 0
0.042460457 0 0
0.026301738 0 0
0.020037670 0 0
0.010277042 0 0
0.026301738 0 0
0.015512145 0 0
0.010277042 0 0
0.004561081 0 0
0.015512145 0 0
0.008536749 0 0
0.004561081 0 0
0.001540175 0 0
0.008536749 0 0
0.004255129 0 0
0.001540175 0 0
0.000164952 0 0
0.004255129 0 0
0.001816744 0 0
0.000164952 0 0
-0.000318425 0 0
0.001816744 0 0
0.000558087 0 0
-0.000318425 0 0
-0.000376765 0 0
0.000558087 0 0
-0.000025727 0 0
-0.000376765 0 0
0.000000000 0 0
-0.000025727 0 0
0.000000000 0 0
0.000000000 0 0
0.377979090 0 0
0.000000000 0 0
0.377302778 0 0
0.377979090 0 0
0.565228542 0 0
0.377302778 0 0
0.564687014 0 0
0.565228542 0 0
0.694980852 0 0
0.564687014 0 0
0.694447695 0 0
0.694980852 0 0
0.786846070 0 0
0.694447695 0 0
0.786588379 0 0
0.786846070 0 0
0.849954070 0 0
0.786588379 0 0
0.849564425 0 0
0.849954070 0 0
0.890962151 0 0
0.849564425 0 0
0.890311502 0 0
0.890962151 0 0
0.915446238 0 0
0.890311502 0 0
0.914297547 0 0
0.915446238 0 0
0.926549930 0 0
0.914297547 0 0
0.924899055 0 0
0.926549930 0 0
0.925593354 0 0
0.924899055 0 0
0.923650988 0 0
0.925593354 0 0
0.912083731 0 0
0.923650988 0 0
0.910315452 0 0
0.912083731 0 0
0.884102687 0 0
0.910315452 0 0
0.882991237 0 0
0.884102687 0 0
0.838458275 0 0
0.882991237 0 0
0.838310987 0 0
0.838458275 0 0
0.771048348 0 0
0.838310987 0 0
0.771908722 0 0
0.771048348 0 0
0.678184267 0 0
0.771908722 0 0
0.679887826 0 0
0.678184267 0 0
0.560494047 0 0
0.679887826 0 0
0.562773700 0 0
0.560494047 0 0
0.431034137 0 0
0.562773700 0 0
0.433636782 0 0
0.431034137 0 0
0.313080215 0 0
0.433636782 0 0
0.315866064 0 0
0.313080215 0 0
0.219395976 0 0
0.315866064 0 0
0.222323826 0 0
0.219395976 0 0
0.150082940 0 0
0.222323826 0 0
0.153149150 0 0
0.150082940 0 0
0.100692549 0 0
0.153149150 0 0
0.103938472 0 0
0.100692549 0 0
0.066211787 0 0
0.103938472 0 0
0.069676853 0 0
0.066211787 0 0
0.042460457 0 0
0.069676853 0 0
0.046107773 0 0
0.042460457 0 0
0.026301738 0 0
0.046107773 0 0
0.030006902 0 0
0.026301738 0 0
0.015512145 0 0
0.030006902 0 0
0.019075447 0 0
0.015512145 0 0
0.008536749 0 0
0.019075447 0 0
0.011731444 0 0
0.008536749 0 0
0.004255129 0 0
0.011731444 0 0
0.006895919 0 0
0.004255129 0 0
0.001816744 0 0
0.006895919 0 0
0.003820224 0 0
0.001816744 0 0
0.000558087 0 0
0.003820224 0 0
0.001942903 0 0
0.000558087 0 0
-0.000025727 0 0
0.001942903 0 0
0.000787458 0 0
-0.000025727 0 0
0.000000000 0 0
0.000787458 0 0
0.000000000 0 0
0.000000000 0 0
0.377302778 0 0
0.000000000 0 0
0.376680398 0 0
0.377302778 0 0
0.564687014 0 0
0.376680398 0 0
0.564125990 0 0
0.564687014 0 0
0.694447695 0 0
0.564125990 0 0
0.694067714 0 0
0.694447695 0 0
0.786588379 0 0
0.694067714 0 0
0.786267811 0 0
0.786588379 0 0
0.849564425 0 0
0.786267811 0 0
0.849424639 0 0
0.849564425 0 0
0.890311502 0 0
0.849424639 0 0
0.890178025 0 0
0.890311502 0 0
0.914297547 0 0
0.890178025 0 0
0.914065797 0 0
0.914297547 0 0
0.924899055 0 0
0.914065797 0 0
0.924404134 0 0
0.924899055 0 0
0.923650988 0 0
0.924404134 0 0
0.922827610 0 0
0.923650988 0 0
0.910315452 0 0
0.922827610 0 0
0.909203644 0 0
0.910315452 0 0
0.882991237 0 0
0.909203644 0 0
0.881786277 0 0
0.882991237 0 0
0.838310987 0 0
0.881786277 0 0
0.837276568 0 0
0.838310987 0 0
0.771908722 0 0
0.837276568 0 0
0.771271749 0 0
0.771908722 0 0
0.679887826 0 0
0.771271749 0 0
0.679757550 0 0
0.679887826 0 0
0.562773700 0 0
0.679757550 0 0
0.563138558 0 0
0.562773700 0 0
0.433636782 0 0
0.563138558 0 0
0.434398241 0 0
0.433636782 0 0
0.315866064 0 0
0.434398241 0 0
0.316884584 0 0
0.315866064 0 0
0.222323826 0 0
0.316884584 0 0
0.223489712 0 0
0.222323826 0 0
0.153149150 0 0
0.223489712 0 0
0.154415849 0 0
0.153149150 0 0
0.103938472 0 0
0.154415849 0 0
0.105295791 0 0
0.103938472 0 0
0.069676853 0 0
0.105295791 0 0
0.071146302 0 0
0.069676853 0 0
0.046107773 0 0
0.071146302 0 0
0.047727111 0 0
0.046107773 0 0
0.030006902 0 0
0.047727111 0 0
0.031789274 0 0
0.030006902 0 0
0.019075447 0 0
0.031789274 0 0
0.020988445 0 0
0.019075447 0 0
0.011731444 0 0
0.020988445 0 0
0.013693674 0 0
0.011731444 0 0
0.006895919 0 0
0.013693674 0 0
0.008792423 0 0
0.006895919 0 0
0.003820224 0 0
0.008792423 0 0
0.005533681 0 0
0.003820224 0 0
0.001942903 0 0
0.005533681 0 0
0.003380568 0 0
0.001942903 0 0
0.000787458 0 0
0.003380568 0 0
0.001845096 0 0
0.000787458 0 0
0.000000000 0 0
0.001845096 0 0
0.000000000 0 0
0.000000000 0 0
0.376680398 0 0
0.000000000 0 0
0.376163776 0 0
0.376680398 0 0
0.564125990 0 0
0.376163776 0 0
0.563622873 0 0
0.564125990 0 0
0.694067714 0 0
0.563622873 0 0
0.693642958 0 0
0.694067714 0 0
0.786267811 0 0
0.693642958 0 0
0.785991810 0 0
0.786267811 0 0
0.849424639 0 0
0.785991810 0 0
0.849216982 0 0
0.849424639 0 0
0.890178025 0 0
0.849216982 0 0
0.890087728 0 0
0.890178025 0 0
0.914065797 0 0
0.890087728 0 0
0.914019610 0 0
0.914065797 0 0
0.924404134 0 0
0.914019610 0 0
0.924341149 0 0
0.924404134 0 0
0.922827610 0 0
0.924341149 0 0
0.922643593 0 0
0.922827610 0 0
0.909203644 0 0
0.922643593 0 0
0.908831360 0 0
0.909203644 0 0
0.881786277 0 0
0.908831360 0 0
0.881206630 0 0
0.881786277 0 0
0.837276568 0 0
0.881206630 0 0
0.836557515 0 0
0.837276568 0 0
0.771271749 0 0
0.836557515 0 0
0.770543702 0 0
0.771271749 0 0
0.679757550 0 0
0.770543702 0 0
0.679163199 0 0
0.679757550 0 0
0.563138558 0 0
0.679163199 0 0
0.562775114 0 0
0.563138558 0 0
0.434398241 0 0
0.562775114 0 0
0.434298412 0 0
0.434398241 0 0
0.316884584 0 0
0.434298412 0 0
0.317027120 0 0
0.316884584 0 0
0.223489712 0 0
0.317027120 0 0
0.223813322 0 0
0.223489712 0 0
0.154415849 0 0
0.223813322 0 0
0.154851924 0 0
0.154415849 0 0
0.105295791 0 0
0.154851924 0 0
0.105803250 0 0
0.105295791 0 0
0.071146302 0 0
0.105803250 0 0
0.071710290 0 0
0.071146302 0 0
0.047727111 0 0
0.071710290 0 0
0.048355468 0 0
0.047727111 0 0
0.031789274 0 0
0.048355468 0 0
0.032507864 0 0
0.031789274 0 0
0.020988445 0 0
0.032507864 0 0
0.021821960 0 0
0.020988445 0 0
0.013693674 0 0
0.021821960 0 0
0.014648659 0 0
0.013693674 0 0
0.008792423 0 0
0.014648659 0 0
0.009850743 0 0
0.008792423 0 0
0.005533681 0 0
0.009850743 0 0
0.006646116 0 0
0.005533681 0 0
0.003380568 0 0
0.006646116 0 0
0.004486650 0 0
0.003380568 0 0
0.001845096 0 0
0.004486650 0 0
0.002819130 0 0
0.001845096 0 0
0.000000000 0 0
0.002819130 0 0
0.000000000 0 0
0.000000000 0 0
0.376163776 0 0
0.000000000 0 0
0.375718625 0 0
0.376163776 0 0
0.563622873 0 0
0.375718625 0 0
0.563205723 0 0
0.563622873 0 0
0.693642958 0 0
0.563205723 0 0
0.693287494 0 0
0.693642958 0 0
0.785991810 0 0
0.693287494 0 0
0.785700197 0 0
0.785991810 0 0
0.849216982 0 0
0.785700197 0 0
0.849025073 0 0
0.849216982 0 0
0.890087728 0 0
0.849025073 0 0
0.889955182 0 0
0.890087728 0 0
0.914019610 0 0
0.889955182 0 0
0.913963830 0 0
0.914019610 0 0
0.924341149 0 0
0.913963830 0 0
0.924332706 0 0
0.924341149 0 0
0.922643593 0 0
0.924332706 0 0
0.922652540 0 0
0.922643593 0 0
0.908831360 0 0
0.922652540 0 0