# vtk DataFile Version 2.0
Square plate test
ASCII
DATASET UNSTRUCTURED_GRID
POINTS 1089 float
0 0.000000000 0
0.031250000 0.000000000 0
0.062500000 0.000000000 0
0.093750000 0.000000000 0
0.125000000 0.000000000 0
0.156250000 0.000000000 0
0.187500000 0.000000000 0
0.218750000 0.000000000 0
0.250000000 0.000000000 0
0.281250000 0.000000000 0
0.312500000 0.000000000 0
0.343750000 0.000000000 0
0.375000000 0.000000000 0
0.406250000 0.000000000 0
0.437500000 0.000000000 0
0.468750000 0.000000000 0
0.500000000 0.000000000 0
0.531250000 0.000000000 0
0.562500000 0.000000000 0
0.593750000 0.000000000 0
0.625000000 0.000000000 0
0.656250000 0.000000000 0
0.687500000 0.000000000 0
0.718750000 0.000000000 0
0.750000000 0.000000000 0
0.781250000 0.000000000 0
0.812500000 0.000000000 0
0.843750000 0.000000000 0
0.875000000 0.000000000 0
0.906250000 0.000000000 0
0.937500000 0.000000000 0
0.968750000 0.000000000 0
1.000000000 0.000000000 0
0.000000000 0.031250000 0
0.031250000 0.031250000 0
0.062500000 0.031250000 0
0.093750000 0.031250000 0
0.125000000 0.031250000 0
0.156250000 0.031250000 0
0.187500000 0.031250000 0
0.218750000 0.031250000 0
0.250000000 0.031250000 0
0.281250000 0.031250000 0
0.312500000 0.031250000 0
0.343750000 0.031250000 0
0.375000000 0.031250000 0
0.406250000 0.031250000 0
0.437500000 0.031250000 0
0.468750000 0.031250000 0
0.500000000 0.031250000 0
0.531250000 0.031250000 0
0.562500000 0.031250000 0
0.593750000 0.031250000 0
0.625000000 0.031250000 0
0.656250000 0.031250000 0
0.687500000 0.031250000 0
0.718750000 0.031250000 0
0.750000000 0.031250000 0
0.781250000 0.031250000 0
0.812500000 0.031250000 0
0.843750000 0.031250000 0
0.875000000 0.031250000 0
0.906250000 0.031250000 0
0.937500000 0.031250000 0
0.968750000 0.031250000 0
1.000000000 0.031250000 0
0.000000000 0.062500000 0
0.031250000 0.062500000 0
0.062500000 0.062500000 0
0.093750000 0.062500000 0
0.125000000 0.062500000 0
0.156250000 0.062500000 0
0.187500000 0.062500000 0
0.218750000 0.062500000 0
0.250000000 0.062500000 0
0.281250000 0.062500000 0
0.312500000 0.062500000 0
0.343750000 0.062500000 0
0.375000000 0.062500000 0
0.406250000 0.062500000 0
0.437500000 0.062500000 0
0.468750000 0.062500000 0
0.500000000 0.062500000 0
0.531250000 0.062500000 0
0.562500000 0.062500000 0
0.593750000 0.062500000 0
0.625000000 0.062500000 0
0.656250000 0.062500000 0
0.687500000 0.062500000 0
0.718750000 0.062500000 0
0.750000000 0.062500000 0
0.781250000 0.062500000 0
0.812500000 0.062500000 0
0.843750000 0.062500000 0
0.875000000 0.062500000 0
0.906250000 0.062500000 0
0.937500000 0.062500000 0
0.968750000 0.062500000 0
1.000000000 0.062500000 0
0.000000000 0.093750000 0
0.031250000 0.093750000 0
0.062500000 0.093750000 0
0.093750000 0.093750000 0
0.125000000 0.093750000 0
0.156250000 0.093750000 0
0.187500000 0.093750000 0
0.218750000 0.093750000 0
0.250000000 0.093750000 0
0.281250000 0.093750000 0
0.312500000 0.093750000 0
0.343750000 0.093750000 0
0.375000000 0.093750000 0
0.406250000 0.093750000 0
0.437500000 0.093750000 0
0.468750000 0.093750000 0
0.500000000 0.093750000 0
0.531250000 0.093750000 0
0.562500000 0.093750000 0
0.593750000 0.093750000 0
0.625000000 0.093750000 0
0.656250000 0.093750000 0
0.687500000 0.093750000 0
0.718750000 0.093750000 0
0.750000000 0.093750000 0
0.781250000 0.093750000 0
0.812500000 0.093750000 0
0.843750000 0.093750000 0
0.875000000 0.093750000 0
0.906250000 0.093750000 0
0.937500000 0.093750000 0
0.968750000 0.093750000 0
1.000000000 0.093750000 0
0.000000000 0.125000000 0
0.031250000 0.125000000 0
0.062500000 0.125000000 0
0.093750000 0.125000000 0
0.125000000 0.125000000 0
0.156250000 0.125000000 0
0.187500000 0.125000000 0
0.218750000 0.125000000 0
0.250000000 0.125000000 0
0.281250000 0.125000000 0
0.312500000 0.125000000 0
0.343750000 0.125000000 0
0.375000000 0.125000000 0
0.406250000 0.125000000 0
0.437500000 0.125000000 0
0.468750000 0.125000000 0
0.500000000 0.125000000 0
0.531250000 0.125000000 0
0.562500000 0.125000000 0
0.593750000 0.125000000 0
0.625000000 0.125000000 0
0.656250000 0.125000000 0
0.687500000 0.125000000 0
0.718750000 0.125000000 0
0.750000000 0.125000000 0
0.781250000 0.125000000 0
0.812500000 0.125000000 0
0.843750000 0.125000000 0
0.875000000 0.125000000 0
0.906250000 0.125000000 0
0.937500000 0.125000000 0
0.968750000 0.125000000 0
1.000000000 0.125000000 0
0.000000000 0.156250000 0
0.031250000 0.156250000 0
0.062500000 0.156250000 0
0.093750000 0.156250000 0
0.125000000 0.156250000 0
0.156250000 0.156250000 0
0.187500000 0.156250000 0
0.218750000 0.156250000 0
0.250000000 0.156250000 0
0.281250000 0.156250000 0
0.312500000 0.156250000 0
0.343750000 0.156250000 0
0.375000000 0.156250000 0
0.406250000 0.156250000 0
0.437500000 0.156250000 0
0.468750000 0.156250000 0
0.500000000 0.156250000 0
0.531250000 0.156250000 0
0.562500000 0.156250000 0
0.593750000 0.156250000 0
0.625000000 0.156250000 0
0.656250000 0.156250000 0
0.687500000 0.156250000 0
0.718750000 0.156250000 0
0.750000000 0.156250000 0
0.781250000 0.156250000 0
0.812500000 0.156250000 0
0.843750000 0.156250000 0
0.875000000 0.156250000 0
0.906250000 0.156250000 0
0.937500000 0.156250000 0
0.968750000 0.156250000 0
1.000000000 0.156250000 0
0.000000000 0.187500000 0
0.031250000 0.187500000 0
0.062500000 0.187500000 0
0.093750000 0.187500000 0
0.125000000 0.187500000 0
0.156250000 0.187500000 0
0.187500000 0.187500000 0
0.218750000 0.187500000 0
0.250000000 0.187500000 0
0.281250000 0.187500000 0
0.312500000 0.187500000 0
0.343750000 0.187500000 0
0.375000000 0.187500000 0
0.406250000 0.187500000 0
0.437500000 0.187500000 0
0.468750000 0.187500000 0
0.500000000 0.187500000 0
0.531250000 0.187500000 0
0.562500000 0.187500000 0
0.593750000 0.187500000 0
0.625000000 0.187500000 0
0.656250000 0.187500000 0
0.687500000 0.187500000 0
0.718750000 0.187500000 0
0.750000000 0.187500000 0
0.781250000 0.187500000 0
0.812500000 0.187500000 0
0.843750000 0.187500000 0
0.875000000 0.187500000 0
0.906250000 0.187500000 0
0.937500000 0.187500000 0
0.968750000 0.187500000 0
1.000000000 0.187500000 0
0.000000000 0.218750000 0
0.031250000 0.218750000 0
0.062500000 0.218750000 0
0.093750000 0.218750000 0
0.125000000 0.218750000 0
0.156250000 0.218750000 0
0.187500000 0.218750000 0
0.218750000 0.218750000 0
0.250000000 0.218750000 0
0.281250000 0.218750000 0
0.312500000 0.218750000 0
0.343750000 0.218750000 0
0.375000000 0.218750000 0
0.406250000 0.218750000 0
0.437500000 0.218750000 0
0.468750000 0.218750000 0
0.500000000 0.218750000 0
0.531250000 0.218750000 0
0.562500000 0.218750000 0
0.593750000 0.218750000 0
0.625000000 0.218750000 0
0.656250000 0.218750000 0
0.687500000 0.218750000 0
0.718750000 0.218750000 0
0.750000000 0.218750000 0
0.781250000 0.218750000 0
0.812500000 0.218750000 0
0.843750000 0.218750000 0
0.875000000 0.218750000 0
0.906250000 0.218750000 0
0.937500000 0.218750000 0
0.968750000 0.218750000 0
1.000000000 0.218750000 0
0.000000000 0.250000000 0
0.031250000 0.250000000 0
0.062500000 0.250000000 0
0.093750000 0.250000000 0
0.125000000 0.250000000 0
0.156250000 0.250000000 0
0.187500000 0.250000000 0
0.218750000 0.250000000 0
0.250000000 0.250000000 0
0.281250000 0.250000000 0
0.312500000 0.250000000 0
0.343750000 0.250000000 0
0.375000000 0.250000000 0
0.406250000 0.250000000 0
0.437500000 0.250000000 0
0.468750000 0.250000000 0
0.500000000 0.250000000 0
0.531250000 0.250000000 0
0.562500000 0.250000000 0
0.593750000 0.250000000 0
0.625000000 0.250000000 0
0.656250000 0.250000000 0
0.687500000 0.250000000 0
0.718750000 0.250000000 0
0.750000000 0.250000000 0
0.781250000 0.250000000 0
0.812500000 0.250000000 0
0.843750000 0.250000000 0
0.875000000 0.250000000 0
0.906250000 0.250000000 0
0.937500000 0.250000000 0
0.968750000 0.250000000 0
1.000000000 0.250000000 0
0.000000000 0.281250000 0
0.031250000 0.281250000 0
0.062500000 0.281250000 0
0.093750000 0.281250000 0
0.125000000 0.281250000 0
0.156250000 0.281250000 0
0.187500000 0.281250000 0
0.218750000 0.281250000 0
0.250000000 0.281250000 0
0.281250000 0.281250000 0
0.312500000 0.281250000 0
0.343750000 0.281250000 0
0.375000000 0.281250000 0
0.406250000 0.281250000 0
0.437500000 0.281250000 0
0.468750000 0.281250000 0
0.500000000 0.281250000 0
0.531250000 0.281250000 0
0.562500000 0.281250000 0
0.593750000 0.281250000 0
0.625000000 0.281250000 0
0.656250000 0.281250000 0
0.687500000 0.281250000 0
0.718750000 0.281250000 0
0.750000000 0.281250000 0
0.781250000 0.281250000 0
0.812500000 0.281250000 0
0.843750000 0.281250000 0
0.875000000 0.281250000 0
0.906250000 0.281250000 0
0.937500000 0.281250000 0
0.968750000 0.281250000 0
1.000000000 0.281250000 0
0.000000000 0.312500000 0
0.031250000 0.312500000 0
0.062500000 0.312500000 0
0.093750000 0.312500000 0
0.125000000 0.312500000 0
0.156250000 0.312500000 0
0.187500000 0.312500000 0
0.218750000 0.312500000 0
0.250000000 0.312500000 0
0.281250000 0.312500000 0
0.312500000 0.312500000 0
0.343750000 0.312500000 0
0.375000000 0.312500000 0
0.406250000 0.312500000 0
0.437500000 0.312500000 0
0.468750000 0.312500000 0
0.500000000 0.312500000 0
0.531250000 0.312500000 0
0.562500000 0.312500000 0
0.593750000 0.312500000 0
0.625000000 0.312500000 0
0.656250000 0.312500000 0
0.687500000 0.312500000 0
0.718750000 0.312500000 0
0.750000000 0.312500000 0
0.781250000 0.312500000 0
0.812500000 0.312500000 0
0.843750000 0.312500000 0
0.875000000 0.312500000 0
0.906250000 0.312500000 0
0.937500000 0.312500000 0
0.968750000 0.312500000 0
1.000000000 0.312500000 0
0.000000000 0.343750000 0
0.031250000 0.343750000 0
0.062500000 0.343750000 0
0.093750000 0.343750000 0
0.125000000 0.343750000 0
0.156250000 0.343750000 0
0.187500000 0.343750000 0
0.218750000 0.343750000 0
0.250000000 0.343750000 0
0.281250000 0.343750000 0
0.312500000 0.343750000 0
0.343750000 0.343750000 0
0.375000000 0.343750000 0
0.406250000 0.343750000 0
0.437500000 0.343750000 0
0.468750000 0.343750000 0
0.500000000 0.343750000 0
0.531250000 0.343750000 0
[...]
POINT_DATA 1089
VECTORS y float
0 0 1.000000000
0 0 0.878906250
0 0 0.765625000
0 0 0.660156250
0 0 0.562500000
0 0 0.472656250
0 0 0.390625000
0 0 0.316406250
0 0 0.250000000
0 0 0.191406250
0 0 0.140625000
0 0 0.097656250
0 0 0.062500000
0 0 0.035156250
0 0 0.015625000
0 0 0.003906250
0 0 0.000000000
0 0 0.000000000
0 0 0.000000000
0 0 0.000000000
0 0 0.000000000
0 0 0.000000000
0 0 0.000000000
0 0 0.000000000
0 0 0.000000000
0 0 0.000000000
0 0 0.000000000
0 0 0.000000000
0 0 0.000000000
0 0 0.000000000
0 0 0.000000000
0 0 0.000000000
0 0 0.000000000
0 0 0.878906250
0 0 0.840410155
0 0 0.729316470
0 0 0.641133410
0 0 0.543062793
0 0 0.459842741
0 0 0.382705460
0 0 0.313624674
0 0 0.251459795
0 0 0.196234983
0 0 0.147938252
0 0 0.106511321
0 0 0.071907147
0 0 0.044064865
0 0 0.022912888
0 0 0.008609796
0 0 0.001560160
0 0 -0.000104761
0 0 -0.000158528
0 0 -0.000138920
0 0 -0.000048375
0 0 -0.000013759
0 0 -0.000001185
0 0 0.000001006
0 0 0.000000821
0 0 0.000000299
0 0 0.000000066
0 0 -0.000000008
0 0 -0.000000014
0 0 -0.000000007
0 0 -0.000000004
0 0 -0.000000002
0 0 0.000000000
0 0 0.765625000
0 0 0.729316470
0 0 0.664707921
0 0 0.578489339
0 0 0.501621974
0 0 0.421636631
0 0 0.353627750
0 0 0.291021325
0 0 0.235530275
0 0 0.186130167
0 0 0.142778605
0 0 0.105493267
0 0 0.074185977
0 0 0.048774646
0 0 0.029078366
0 0 0.014851018
0 0 0.005582516
0 0 0.000987487
0 0 -0.000162313
0 0 -0.000220330
0 0 -0.000158232
0 0 -0.000052880
0 0 -0.000012746
0 0 -0.000000180
0 0 0.000002104
0 0 0.000001282
0 0 0.000000411
0 0 0.000000079
0 0 -0.000000020
0 0 -0.000000026
0 0 -0.000000013
0 0 -0.000000006
0 0 0.000000000
0 0 0.660156250
0 0 0.641133410
0 0 0.578489339
0 0 0.532630286
0 0 0.465574003
0 0 0.397197286
0 0 0.333698064
0 0 0.277288649
0 0 0.225644721
0 0 0.180277651
0 0 0.140319080
0 0 0.105655882
0 0 0.076339941
0 0 0.052249588
0 0 0.033270826
0 0 0.019181832
0 0 0.009576471
0 0 0.003736264
0 0 0.000862597
0 0 -0.000026920
0 0 -0.000149853
0 0 -0.000113637
0 0 -0.000043790
0 0 -0.000011597
0 0 -0.000000427
0 0 0.000001885
0 0 0.000001187
0 0 0.000000438
0 0 0.000000108
0 0 -0.000000012
0 0 -0.000000029
0 0 -0.000000009
0 0 0.000000000
0 0 0.562500000
0 0 0.543062793
0 0 0.501621974
0 0 0.465574003
0 0 0.422152171
0 0 0.361043336
0 0 0.307121011
0 0 0.256871630
0 0 0.210572393
0 0 0.169398529
0 0 0.133479536
0 0 0.102095516
0 0 0.075356682
0 0 0.053216353
0 0 0.035504649
0 0 0.022048288
0 0 0.012488591
0 0 0.006221365
0 0 0.002482173
0 0 0.000620353
0 0 -0.000003030
0 0 -0.000108802
0 0 -0.000084530
0 0 -0.000035412
0 0 -0.000009660
0 0 -0.000000393
0 0 0.000001566
0 0 0.000001067
0 0 0.000000439
0 0 0.000000109
0 0 -0.000000007
0 0 -0.000000001
0 0 0.000000000
0 0 0.472656250
0 0 0.459842741
0 0 0.421636631
0 0 0.397197286
0 0 0.361043336
0 0 0.316144167
0 0 0.270433728
0 0 0.228515481
0 0 0.188435202
0 0 0.152540101
0 0 0.121063164
0 0 0.093658402
0 0 0.070183399
0 0 0.050654694
0 0 0.034923209
0 0 0.022816621
0 0 0.014005498
0 0 0.007918522
0 0 0.003953565
0 0 0.001592855
0 0 0.000415283
0 0 0.000001716
0 0 -0.000078182
0 0 -0.000061569
0 0 -0.000027114
0 0 -0.000007783
0 0 -0.000000484
0 0 0.000001223
0 0 0.000000904
0 0 0.000000376
0 0 0.000000125
0 0 0.000000054
0 0 0.000000000
0 0 0.390625000
0 0 0.382705460
0 0 0.353627750
0 0 0.333698064
0 0 0.307121011
0 0 0.270433728
0 0 0.235655336
0 0 0.200482307
0 0 0.166860271
0 0 0.136025688
0 0 0.108723292
0 0 0.084828234
0 0 0.064364157
0 0 0.047239398
0 0 0.033356907
0 0 0.022574087
0 0 0.014611919
0 0 0.008964240
0 0 0.005072301
0 0 0.002532592
0 0 0.001030475
0 0 0.000279314
0 0 0.000003580
0 0 -0.000054691
0 0 -0.000043752
0 0 -0.000020269
0 0 -0.000006215
0 0 -0.000000536
0 0 0.000000882
0 0 0.000000678
0 0 0.000000382
0 0 0.000000184
0 0 0.000000000
0 0 0.316406250
0 0 0.313624674
0 0 0.291021325
0 0 0.277288649
0 0 0.256871630
0 0 0.228515481
0 0 0.200482307
0 0 0.173188071
0 0 0.145318044
0 0 0.119584746
0 0 0.096374536
0 0 0.075841784
0 0 0.058155173
0 0 0.043308734
0 0 0.031175877
0 0 0.021660676
0 0 0.014540403
0 0 0.009402553
0 0 0.005764875
0 0 0.003254282
0 0 0.001625888
0 0 0.000668062
0 0 0.000186160
0 0 0.000003570
0 0 -0.000037440
0 0 -0.000030639
0 0 -0.000014885
0 0 -0.000004839
0 0 -0.000000588
0 0 0.000000545
0 0 0.000000630
0 0 0.000000342
0 0 0.000000000
0 0 0.250000000
0 0 0.251459795
0 0 0.235530275
0 0 0.225644721
0 0 0.210572393
0 0 0.188435202
0 0 0.166860271
0 0 0.145318044
0 0 0.123593880
0 0 0.102621287
0 0 0.083520788
0 0 0.066356161
0 0 0.051402540
0 0 0.038763739
0 0 0.028374753
0 0 0.020142922
0 0 0.013905394
0 0 0.009333489
0 0 0.006036833
0 0 0.003695090
0 0 0.002084762
0 0 0.001044164
0 0 0.000432335
0 0 0.000123127
0 0 0.000003154
0 0 -0.000025293
0 0 -0.000021234
0 0 -0.000010767
0 0 -0.000003765
0 0 -0.000000610
0 0 0.000000461
0 0 0.000000376
0 0 0.000000000
0 0 0.191406250
0 0 0.196234983
0 0 0.186130167
0 0 0.180277651
0 0 0.169398529
0 0 0.152540101
0 0 0.136025688
0 0 0.119584746
0 0 0.102621287
0 0 0.086307895
0 0 0.070960847
0 0 0.056998301
0 0 0.044651558
0 0 0.034086440
0 0 0.025322550
0 0 0.018312531
0 0 0.012929553
0 0 0.008926975
0 0 0.005995166
0 0 0.003873369
0 0 0.002368666
0 0 0.001336778
0 0 0.000670688
0 0 0.000279537
0 0 0.000081176
0 0 0.000002563
0 0 -0.000016946
0 0 -0.000014640
0 0 -0.000007758
0 0 -0.000002813
0 0 -0.000000595
0 0 0.000000007
0 0 0.000000000
0 0 0.140625000
0 0 0.147938252
0 0 0.142778605
0 0 0.140319080
0 0 0.133479536
0 0 0.121063164
0 0 0.108723292
0 0 0.096374536
0 0 0.083520788
0 0 0.070960847
0 0 0.059120878
0 0 0.048053554
0 0 0.038126769
0 0 0.029499675
0 0 0.022237453
0 0 0.016352862
0 0 0.011770893
0 0 0.008310190
0 0 0.005739396
0 0 0.003851082
0 0 0.002485961
0 0 0.001519368
0 0 0.000857333
0 0 0.000430880
0 0 0.000180763
0 0 0.000053400
0 0 0.000002004
0 0 -0.000011369
0 0 -0.000010033
0 0 -0.000005313
0 0 -0.000002526
0 0 -0.000000984
0 0 0.000000000
0 0 0.097656250
0 0 0.106511321
0 0 0.105493267
0 0 0.105655882
0 0 0.102095516
0 0 0.093658402
0 0 0.084828234
0 0 0.075841784
0 0 0.066356161
0 0 0.056998301
0 0 0.048053554
0 0 0.039626994
0 0 0.031883638
0 0 0.025042816
0 0 0.019180802
0 0 0.014342609
0 0 0.010509123
0 0 0.007564218
0 0 0.005341962
0 0 0.003687528
0 0 0.002473187
0 0 0.001595770
0 0 0.000974582
0 0 0.000549951
0 0 0.000276990
0 0 0.000116969
0 0 0.000035132
0 0 0.000001418
0 0 -0.000007478
0 0 -0.000006446
0 0 -0.000004653
0 0 -0.000002473
0 0 0.000000000
0 0 0.062500000
0 0 0.071907147
0 0 0.074185977
0 0 0.076339941
0 0 0.075356682
0 0 0.070183399
0 0 0.064364157
0 0 0.058155173
0 0 0.051402540
0 0 0.044651558
0 0 0.038126769
0 0 0.031883638
0 0 0.026076621
0 0 0.020822718
0 0 0.016230181
0 0 0.012356079
0 0 0.009215368
0 0 0.006752665
0 0 0.004861724
0 0 0.003432478
0 0 0.002368965
0 0 0.001588506
0 0 0.001024306
0 0 0.000625218
0 0 0.000352971
0 0 0.000178261
0 0 0.000075823
0 0 0.000023045
0 0 0.000001253
0 0 -0.000004403
0 0 -0.000005606
0 0 -0.000003880
0 0 0.000000000
0 0 0.035156250
0 0 0.044064865
0 0 0.048774646
0 0 0.052249588
0 0 0.053216353
0 0 0.050654694
0 0 0.047239398
0 0 0.043308734
0 0 0.038763739
0 0 0.034086440
0 0 0.029499675
0 0 0.025042816
0 0 0.020822718
0 0 0.016941489
0 0 0.013459396
0 0 0.010448072
0 0 0.007940557
0 0 0.005922734
0 0 0.004340730
0 0 0.003124518
0 0 0.002205706
0 0 0.001522135
0 0 0.001020271
0 0 0.000657551
0 0 0.000401277
0 0 0.000226774
0 0 0.000114949
0 0 0.000049286
0 0 0.000015483
0 0 0.000001455
0 0 -0.000003922
0 0 -0.000004222
0 0 0.000000000
0 0 0.015625000
0 0 0.022912888
0 0 0.029078366
0 0 0.033270826
0 0 0.035504649
0 0 0.034923209
0 0 0.033356907
0 0 0.031175877
0 0 0.028374753
0 0 0.025322550
0 0 0.022237453
0 0 0.019180802
0 0 0.016230181
0 0 0.013459396
0 0 0.010919611
0 0 0.008656178
0 0 0.006713685
0 0 0.005103156
0 0 0.003807052
0 0 0.002789909
0 0 0.002008077
0 0 0.001417518
0 0 0.000978017
0 0 0.000655362
0 0 0.000422289
0 0 0.000257753
0 0 0.000145957
0 0 0.000074552
0 0 0.000032473
0 0 0.000010486
0 0 0.000000963
0 0 -0.000002492
0 0 0.000000000
0 0 0.003906250
0 0 0.008609796
0 0 0.014851018
0 0 0.019181832
0 0 0.022048288
0 0 0.022816621
0 0 0.022574087
0 0 0.021660676
0 0 0.020142922
0 0 0.018312531
0 0 0.016352862
0 0 0.014342609
0 0 0.012356079
0 0 0.010448072
0 0 0.008656178
0 0 0.007016463
0 0 0.005560908
0 0 0.004313803
0 0 0.003279594
0 0 0.002446815
0 0 0.001793136
0 0 0.001290633
0 0 0.000910994
0 0 0.000628478
0 0 0.000421151
0 0 0.000271349
0 0 0.000165816
0 0 0.000094723
0 0 0.000048768
0 0 0.000020907
0 0 0.000008525
0 0 0.000001802
0 0 0.000000000
0 0 0.000000000
0 0 0.001560160
0 0 0.005582516
0 0 0.009576471
0 0 0.012488591
0 0 0.014005498
0 0 0.014611919
0 0 0.014540403
0 0 0.013905394
0 0 0.012929553
0 0 0.011770893
0 0 0.010509123
0 0 0.009215368
0 0 0.007940557
0 0 0.006713685
0 0 0.005560908
0 0 0.004507202
0 0 0.003572645
0 0 0.002771843
0 0 0.002107623
0 0 0.001572624
0 0 0.001152544
0 0 0.000829539
0 0 0.000585553
0 0 0.000404073
0 0 0.000270727
0 0 0.000174569
0 0 0.000107821
0 0 0.000061807
0 0 0.000030633
0 0 0.000017302
0 0 0.000008416
0 0 0.000000000
0 0 0.000000000
0 0 -0.000104761
0 0 0.000987487
0 0 0.003736264
0 0 0.006221365
0 0 0.007918522
0 0 0.008964240
0 0 0.009402553
0 0 0.009333489
0 0 0.008926975
0 0 0.008310190
0 0 0.007564218
0 0 0.006752665
0 0 0.005922734
0 0 0.005103156
0 0 0.004313803
0 0 0.003572645
0 0 0.002895485
0 0 0.002295272
0 0 0.001781060
0 0 0.001354487
0 0 0.001010789
0 0 0.000740812
0 0 0.000533263
0 0 0.000376609
0 0 0.000259822
0 0 0.000174176
0 0 0.000113790
0 0 0.000070353
0 0 0.000038180
0 0 0.000025544
0 0 0.000016413
0 0 0.000000000
0 0 0.000000000
0 0 -0.000158528
0 0 -0.000162313
0 0 0.000862597
0 0 0.002482173
0 0 0.003953565
0 0 0.005072301
0 0 0.005764875
0 0 0.006036833
0 0 0.005995166
0 0 0.005739396
0 0 0.005341962
0 0 0.004861724
0 0 0.004340730
0 0 0.003807052
0 0 0.003279594
0 0 0.002771843
0 0 0.002295272
0 0 0.001860073
0 0 0.001474615
0 0 0.001144441
0 0 0.000870492
0 0 0.000649670
0 0 0.000476242
0 0 0.000343058
0 0 0.000242203
0 0 0.000167136
0 0 0.000113798
0 0 0.000074363
0 0 0.000042895
0 0 0.000031935
0 0 0.000024515
0 0 0.000000000
0 0 0.000000000
0 0 -0.000138920
0 0 -0.000220330
0 0 -0.000026920
0 0 0.000620353
0 0 0.001592855
0 0 0.002532592
0 0 0.003254282
0 0 0.003695090
0 0 0.003873369
0 0 0.003851082
0 0 0.003687528
0 0 0.003432478
0 0 0.003124518
0 0 0.002789909
0 0 0.002446815
0 0 0.002107623
0 0 0.001781060
0 0 0.001474615
0 0 0.001194940
0 0 0.000947399
0 0 0.000735395
0 0 0.000559424
0 0 0.000417622
0 0 0.000306414
0 0 0.000220637
0 0 0.000155745
0 0 0.000109410
0 0 0.000074549
0 0 0.000044845
0 0 0.000035866
0 0 0.000031551
0 0 0.000000000
0 0 0.000000000
0 0 -0.000048375
0 0 -0.000158232
0 0 -0.000149853
0 0 -0.000003030
0 0 0.000415283
0 0 0.001030475
0 0 0.001625888
0 0 0.002084762
0 0 0.002368666
0 0 0.002485961
0 0 0.002473187
0 0 0.002368965
0 0 0.002205706
0 0 0.002008077
0 0 0.001793136
0 0 0.001572624
0 0 0.001354487
0 0 0.001144441
0 0 0.000947399
0 0 0.000767686
0 0 0.000608717
0 0 0.000472541
0 0 0.000359568
0 0 0.000268718
0 0 0.000197072
0 0 0.000141808
0 0 0.000102113
0 0 0.000071886
0 0 0.000044531
0 0 0.000037376
0 0 0.000036746
0 0 0.000000000
0 0 0.000000000
0 0 -0.000013759
0 0 -0.000052880
0 0 -0.000113637
0 0 -0.000108802
0 0 0.000001716
0 0 0.000279314
0 0 0.000668062
0 0 0.001044164
0 0 0.001336778
0 0 0.001519368
0 0 0.001595770
0 0 0.001588506
0 0 0.001522135
0 0 0.001417518
0 0 0.001290633
0 0 0.001152544
0 0 0.001010789
0 0 0.000870492
0 0 0.000735395
0 0 0.000608717
0 0 0.000493252
0 0 0.000391113
0 0 0.000303695
0 0 0.000231375
0 0 0.000172834
0 0 0.000126594
0 0 0.000093090
0 0 0.000067312
0 0 0.000042585
0 0 0.000036907
0 0 0.000039800
0 0 0.000000000
0 0 0.000000000
0 0 -0.000001185
0 0 -0.000012746
0 0 -0.000043790
0 0 -0.000084530
0 0 -0.000078182
0 0 0.000003580
0 0 0.000186160
0 0 0.000432335
0 0 0.000670688
0 0 0.000857333
0 0 0.000974582
0 0 0.001024306
0 0 0.001020271
0 0 0.000978017
0 0 0.000910994
0 0 0.000829539
0 0 0.000740812
0 0 0.000649670
0 0 0.000559424
0 0 0.000472541
0 0 0.000391113
0 0 0.000316881
0 0 0.000251299
0 0 0.000195391
0 0 0.000148771
0 0 0.000110923
0 0 0.000083142
0 0 0.000061535
0 0 0.000039579
0 0 0.000035038
0 0 0.000040813
0 0 0.000000000
0 0 0.000000000
0 0 0.000001006
0 0 -0.000000180
0 0 -0.000011597
0 0 -0.000035412
0 0 -0.000061569
0 0 -0.000054691
0 0 0.000003570
0 0 0.000123127
0 0 0.000279537
0 0 0.000430880
0 0 0.000549951
0 0 0.000625218
0 0 0.000657551
0 0 0.000655362
0 0 0.000628478
0 0 0.000585553
0 0 0.000533263
0 0 0.000476242
0 0 0.000417622
0 0 0.000359568
0 0 0.000303695
0 0 0.000251299
0 0 0.000203606
0 0 0.000161685
0 0 0.000125624
0 0 0.000095390
0 0 0.000072895
0 0 0.000055107
0 0 0.000035931
0 0 0.000032300
0 0 0.000040125
0 0 0.000000000
0 0 0.000000000
0 0 0.000000821
0 0 0.000002104
0 0 -0.000000427
0 0 -0.000009660
0 0 -0.000027114
0 0 -0.000043752
0 0 -0.000037440
0 0 0.000003154
0 0 0.000081176
0 0 0.000180763
0 0 0.000276990
0 0 0.000352971
0 0 0.000401277
0 0 0.000422289
0 0 0.000421151
0 0 0.000404073
0 0 0.000376609
0 0 0.000343058
0 0 0.000306414
0 0 0.000268718
0 0 0.000231375
0 0 0.000195391
0 0 0.000161685
0 0 0.000131210
0 0 0.000104112
0 0 0.000080645
0 0 0.000062824
0 0 0.000048569
0 0 0.000032032
0 0 0.000029087
0 0 0.000038162
0 0 0.000000000
0 0 0.000000000
0 0 0.000000299
0 0 0.000001282
0 0 0.000001885
0 0 -0.000000393
0 0 -0.000007783
0 0 -0.000020269
0 0 -0.000030639
0 0 -0.000025293
0 0 0.000002563
0 0 0.000053400
0 0 0.000116969
0 0 0.000178261
0 0 0.000226774
0 0 0.000257753
0 0 0.000271349
0 0 0.000270727
0 0 0.000259822
0 0 0.000242203
0 0 0.000220637
0 0 0.000197072
0 0 0.000172834
0 0 0.000148771
0 0 0.000125624
0 0 0.000104112
0 0 0.000084414
0 0 0.000066688
0 0 0.000053082
0 0 0.000041839
0 0 0.000028089
0 0 0.000025711
0 0 0.000035332
0 0 0.000000000
0 0 0.000000000
0 0 0.000000066
0 0 0.000000411
0 0 0.000001187
0 0 0.000001566
0 0 -0.000000484
0 0 -0.000006215
0 0 -0.000014885
0 0 -0.000021234
0 0 -0.000016946
0 0 0.000002004
0 0 0.000035132
0 0 0.000075823
0 0 0.000114949
0 0 0.000145957
0 0 0.000165816
0 0 0.000174569
0 0 0.000174176
0 0 0.000167136
0 0 0.000155745
0 0 0.000141808
0 0 0.000126594
0 0 0.000110923
0 0 0.000095390
0 0 0.000080645
0 0 0.000066688
0 0 0.000053756
0 0 0.000043610
0 0 0.000035269
0 0 0.000023762
0 0 0.000022385
0 0 0.000031977
0 0 0.000000000
0 0 0.000000000
0 0 -0.000000008
0 0 0.000000079
0 0 0.000000438
0 0 0.000001067
0 0 0.000001223
0 0 -0.000000536
0 0 -0.000004839
0 0 -0.000010767
0 0 -0.000014640
0 0 -0.000011369
0 0 0.000001418
0 0 0.000023045
0 0 0.000049286
0 0 0.000074552
0 0 0.000094723
0 0 0.000107821
0 0 0.000113790
0 0 0.000113798
0 0 0.000109410
0 0 0.000102113
0 0 0.000093090
0 0 0.000083142
0 0 0.000072895
0 0 0.000062824
0 0 0.000053082
0 0 0.000043610
0 0 0.000036306
0 0 0.000029943
0 0 0.000020652
0 0 0.000018694
0 0 0.000028485
0 0 0.000000000
0 0 0.000000000
0 0 -0.000000014
0 0 -0.000000020
0 0 0.000000108
0 0 0.000000439
0 0 0.000000904
0 0 0.000000882
0 0 -0.000000588
0 0 -0.000003765
0 0 -0.000007758
0 0 -0.000010033
0 0 -0.000007478
0 0 0.000001253
0 0 0.000015483
0 0 0.000032473
0 0 0.000048768
0 0 0.000061807
0 0 0.000070353
0 0 0.000074363
0 0 0.000074549
0 0 0.000071886
0 0 0.000067312
0 0 0.000061535
0 0 0.000055107
0 0 0.000048569
0 0 0.000041839
0 0 0.000035269
0 0 0.000029943
0 0 0.000025424
0 0 0.000017481
0 0 0.000016827
0 0 0.000024590
0 0 0.000000000
0 0 0.000000000
0 0 -0.000000007
0 0 -0.000000026
0 0 -0.000000012
0 0 0.000000109
0 0 0.000000376
0 0 0.000000678
0 0 0.000000545
0 0 -0.000000610
0 0 -0.000002813
0 0 -0.000005313
0 0 -0.000006446
0 0 -0.000004403
0 0 0.000001455
0 0 0.000010486
0 0 0.000020907
0 0 0.000030633
0 0 0.000038180
0 0 0.000042895
0 0 0.000044845
0 0 0.000044531
0 0 0.000042585
0 0 0.000039579
0 0 0.000035931
0 0 0.000032032
0 0 0.000028089
0 0 0.000023762
0 0 0.000020652
0 0 0.000017481
0 0 0.000012472
0 0 0.000013134
0 0 0.000022692
0 0 0.000000000
0 0 0.000000000
0 0 -0.000000004
0 0 -0.000000013
0 0 -0.000000029
0 0 -0.000000007
0 0 0.000000125
0 0 0.000000382
0 0 0.000000630
0 0 0.000000461
0 0 -0.000000595
0 0 -0.000002526
0 0 -0.000004653
0 0 -0.000005606
0 0 -0.000003922
0 0 0.000000963
0 0 0.000008525
0 0 0.000017302
0 0 0.000025544
0 0 0.000031935
0 0 0.000035866
0 0 0.000037376
0 0 0.000036907
0 0 0.000035038
0 0 0.000032300
0 0 0.000029087
0 0 0.000025711
0 0 0.000022385
0 0 0.000018694
0 0 0.000016827
0 0 0.000013134
0 0 0.000011269
0 0 0.000016540
0 0 0.000000000
0 0 0.000000000
0 0 -0.000000002
0 0 -0.000000006
0 0 -0.000000009
0 0 -0.000000001
0 0 0.000000054
0 0 0.000000184
0 0 0.000000342
0 0 0.000000376
0 0 0.000000007
0 0 -0.000000984
0 0 -0.000002473
0 0 -0.000003880
0 0 -0.000004222
0 0 -0.000002492
0 0 0.000001802
0 0 0.000008416
0 0 0.000016413
0 0 0.000024515
0 0 0.000031551
0 0 0.000036746
0 0 0.000039800
0 0 0.000040813
0 0 0.000040125
0 0 0.000038162
0 0 0.000035332
0 0 0.000031977
0 0 0.000028485
0 0 0.000024590
0 0 0.000022692
0 0 0.000016540
0 0 0.000015234
0 0 0.000000000
0 0 0.000000000
0 0 0.000000000
0 0 0.000000000
0 0 0.000000000
0 0 0.000000000
0 0 0.000000000
0 0 0.000000000
0 0 0.000000000
0 0 0.000000000
0 0 0.000000000
0 0 0.000000000
0 0 0.000000000
0 0 0.000000000
0 0 0.000000000
0 0 0.000000000
0 0 0.000000000
0 0 0.000000000
0 0 0.000000000
0 0 0.000000000
0 0 0.000000000
0 0 0.000000000
0 0 0.000000000
0 0 0.000000000
0 0 0.000000000
0 0 0.000000000
0 0 0.000000000
0 0 0.000000000
0 0 0.000000000
0 0 0.000000000
0 0 0.000000000
0 0 0.000000000
0 0 0.000000000
0 0 0.000000000
VECTORS u float
0 0 0.000000000
0 0 -0.000000000
0 0 0.000000000
0 0 -0.000000000
0 0 0.000000000
0 0 -0.000000000
0 0 0.000000000
0 0 -0.000000000
0 0 0.000000000
0 0 -0.000000000
0 0 0.000000000
0 0 -0.000000000
0 0 0.000000000
0 0 0.000000000
0 0 -0.000000000
0 0 -0.000000000
0 0 0.000000000
0 0 -0.000000000
0 0 -0.000000000
0 0 0.000000000
0 0 -0.000000000
0 0 0.000000000
0 0 -0.000000000
0 0 0.000000000
0 0 -0.000000000
0 0 0.000000000
0 0 -0.000000000
0 0 0.000000000
0 0 -0.000000000
0 0 0.000000000
0 0 -0.000000000
0 0 0.000000000
0 0 -0.000000000
0 0 -0.000000000
0 0 -4.068188225
0 0 -4.110043335
0 0 -4.591593190
0 0 -3.759956028
0 0 -3.387324100
0 0 -2.897901654
0 0 -2.465607673
0 0 -2.065888837
0 0 -1.695122304
0 0 -1.354526330
0 0 -1.046117976
0 0 -0.770521414
0 0 -0.531482465
0 0 -0.333887138
0 0 -0.183251431
0 0 -0.083194770
0 0 -0.030600291
0 0 -0.009604626
0 0 -0.002197885
0 0 -0.000028995
0 0 0.000269599
0 0 0.000162997
0 0 0.000068430
0 0 0.000019338
0 0 0.000000786
0 0 -0.000002272
0 0 -0.000001357
0 0 -0.000000569
0 0 -0.000000166
0 0 -0.000000002
0 0 0.000000004
0 0 0.000000000
0 0 0.000000000
0 0 -4.110043335
0 0 -3.506981238
0 0 -2.965215227
0 0 -2.988853358
0 0 -2.439664292
0 0 -2.206623651
0 0 -1.879706966
0 0 -1.602834065
0 0 -1.345901281
0 0 -1.104755860
0 0 -0.883669060
0 0 -0.680891056
0 0 -0.496518704
0 0 -0.333187937
0 0 -0.195264247
0 0 -0.091656977
0 0 -0.032203366
0 0 -0.009168101
0 0 -0.001776602
0 0 0.000586304
0 0 0.000667575
0 0 0.000307644
0 0 0.000124905
0 0 0.000036700
0 0 -0.000000809
0 0 -0.000005140
0 0 -0.000002565
0 0 -0.000001146
0 0 -0.000000298
0 0 0.000000049
0 0 0.000000039
0 0 -0.000000000
0 0 -0.000000000
0 0 -4.591593190
0 0 -2.965215227
0 0 -1.773457785
0 0 -2.050811817
0 0 -1.934484857
0 0 -1.520795868
0 0 -1.379816189
0 0 -1.170375328
0 0 -0.975568589
0 0 -0.806360371
0 0 -0.648803412
0 0 -0.504848049
0 0 -0.375789623
0 0 -0.261854881
0 0 -0.164770154
0 0 -0.088683817
0 0 -0.039629684
0 0 -0.015211045
0 0 -0.004656930
0 0 -0.000499860
0 0 0.000512725
0 0 0.000392659
0 0 0.000209873
0 0 0.000090371
0 0 0.000018190
0 0 -0.000002147
0 0 -0.000002797
0 0 -0.000002128
0 0 -0.000000938
0 0 -0.000000057
0 0 0.000000056
0 0 0.000000000
0 0 0.000000000
0 0 -3.759956028
0 0 -2.988853358
0 0 -2.050811817
0 0 -2.628175939
0 0 -2.365173172
0 0 -1.968791326
0 0 -1.720467388
0 0 -1.507644844