# vtk DataFile Version 2.0
Hex test
ASCII
DATASET UNSTRUCTURED_GRID
POINTS 14400 float
0 0.000000000 0.000000000
0.026523919 0.000000000 0.000000000
0.045524681 0.000000000 0.000000000
0.059895800 0.000000000 0.000000000
0.000000000 0.026523919 0.000000000
0.026523919 0.026523919 0.000000000
0.045524681 0.026523919 0.000000000
0.059895800 0.026523919 0.000000000
0.000000000 0.045524681 0.000000000
0.026523919 0.045524681 0.000000000
0.045524681 0.045524681 0.000000000
0.059895800 0.045524681 0.000000000
0.000000000 0.059895800 0.000000000
0.026523919 0.059895800 0.000000000
0.045524681 0.059895800 0.000000000
0.059895800 0.059895800 0.000000000
0.059895800 0.000000000 0.000000000
0.072145059 0.000000000 0.000000000
0.083236874 0.000000000 0.000000000
0.093750000 0.000000000 0.000000000
0.059895800 0.026523919 0.000000000
0.072145059 0.026523919 0.000000000
0.083236874 0.026523919 0.000000000
0.093750000 0.026523919 0.000000000
0.059895800 0.045524681 0.000000000
0.072145059 0.045524681 0.000000000
0.083236874 0.045524681 0.000000000
0.093750000 0.045524681 0.000000000
0.059895800 0.059895800 0.000000000
0.072145059 0.059895800 0.000000000
0.083236874 0.059895800 0.000000000
0.093750000 0.059895800 0.000000000
0.093750000 0.000000000 0.000000000
0.104166741 0.000000000 0.000000000
0.114583259 0.000000000 0.000000000
0.125000000 0.000000000 0.000000000
0.093750000 0.026523919 0.000000000
0.104166741 0.026523919 0.000000000
0.114583259 0.026523919 0.000000000
0.125000000 0.026523919 0.000000000
0.093750000 0.045524681 0.000000000
0.104166741 0.045524681 0.000000000
0.114583259 0.045524681 0.000000000
0.125000000 0.045524681 0.000000000
0.093750000 0.059895800 0.000000000
0.104166741 0.059895800 0.000000000
0.114583259 0.059895800 0.000000000
0.125000000 0.059895800 0.000000000
0.125000000 0.000000000 0.000000000
0.135416741 0.000000000 0.000000000
0.145833259 0.000000000 0.000000000
0.156250000 0.000000000 0.000000000
0.125000000 0.026523919 0.000000000
0.135416741 0.026523919 0.000000000
0.145833259 0.026523919 0.000000000
0.156250000 0.026523919 0.000000000
0.125000000 0.045524681 0.000000000
0.135416741 0.045524681 0.000000000
0.145833259 0.045524681 0.000000000
0.156250000 0.045524681 0.000000000
0.125000000 0.059895800 0.000000000
0.135416741 0.059895800 0.000000000
0.145833259 0.059895800 0.000000000
0.156250000 0.059895800 0.000000000
0.156250000 0.000000000 0.000000000
0.166666741 0.000000000 0.000000000
0.177083259 0.000000000 0.000000000
0.187500000 0.000000000 0.000000000
0.156250000 0.026523919 0.000000000
0.166666741 0.026523919 0.000000000
0.177083259 0.026523919 0.000000000
0.187500000 0.026523919 0.000000000
0.156250000 0.045524681 0.000000000
0.166666741 0.045524681 0.000000000
0.177083259 0.045524681 0.000000000
0.187500000 0.045524681 0.000000000
0.156250000 0.059895800 0.000000000
0.166666741 0.059895800 0.000000000
0.177083259 0.059895800 0.000000000
0.187500000 0.059895800 0.000000000
0.187500000 0.000000000 0.000000000
0.197916741 0.000000000 0.000000000
0.208333259 0.000000000 0.000000000
0.218750000 0.000000000 0.000000000
0.187500000 0.026523919 0.000000000
0.197916741 0.026523919 0.000000000
0.208333259 0.026523919 0.000000000
0.218750000 0.026523919 0.000000000
0.187500000 0.045524681 0.000000000
0.197916741 0.045524681 0.000000000
0.208333259 0.045524681 0.000000000
0.218750000 0.045524681 0.000000000
0.187500000 0.059895800 0.000000000
0.197916741 0.059895800 0.000000000
0.208333259 0.059895800 0.000000000
0.218750000 0.059895800 0.000000000
0.218750000 0.000000000 0.000000000
0.229166741 0.000000000 0.000000000
0.239583259 0.000000000 0.000000000
0.250000000 0.000000000 0.000000000
0.218750000 0.026523919 0.000000000
0.229166741 0.026523919 0.000000000
0.239583259 0.026523919 0.000000000
0.250000000 0.026523919 0.000000000
0.218750000 0.045524681 0.000000000
0.229166741 0.045524681 0.000000000
0.239583259 0.045524681 0.000000000
0.250000000 0.045524681 0.000000000
0.218750000 0.059895800 0.000000000
0.229166741 0.059895800 0.000000000
0.239583259 0.059895800 0.000000000
0.250000000 0.059895800 0.000000000
0.250000000 0.000000000 0.000000000
0.260416741 0.000000000 0.000000000
0.270833259 0.000000000 0.000000000
0.281250000 0.000000000 0.000000000
0.250000000 0.026523919 0.000000000
0.260416741 0.026523919 0.000000000
0.270833259 0.026523919 0.000000000
0.281250000 0.026523919 0.000000000
0.250000000 0.045524681 0.000000000
0.260416741 0.045524681 0.000000000
0.270833259 0.045524681 0.000000000
0.281250000 0.045524681 0.000000000
0.250000000 0.059895800 0.000000000
0.260416741 0.059895800 0.000000000
0.270833259 0.059895800 0.000000000
0.281250000 0.059895800 0.000000000
0.281250000 0.000000000 0.000000000
0.291666741 0.000000000 0.000000000
0.302083259 0.000000000 0.000000000
0.312500000 0.000000000 0.000000000
0.281250000 0.026523919 0.000000000
0.291666741 0.026523919 0.000000000
0.302083259 0.026523919 0.000000000
0.312500000 0.026523919 0.000000000
0.281250000 0.045524681 0.000000000
0.291666741 0.045524681 0.000000000
0.302083259 0.045524681 0.000000000
0.312500000 0.045524681 0.000000000
0.281250000 0.059895800 0.000000000
0.291666741 0.059895800 0.000000000
0.302083259 0.059895800 0.000000000
0.312500000 0.059895800 0.000000000
0.312500000 0.000000000 0.000000000
0.322916741 0.000000000 0.000000000
0.333333259 0.000000000 0.000000000
0.343750000 0.000000000 0.000000000
0.312500000 0.026523919 0.000000000
0.322916741 0.026523919 0.000000000
0.333333259 0.026523919 0.000000000
0.343750000 0.026523919 0.000000000
0.312500000 0.045524681 0.000000000
0.322916741 0.045524681 0.000000000
0.333333259 0.045524681 0.000000000
0.343750000 0.045524681 0.000000000
0.312500000 0.059895800 0.000000000
0.322916741 0.059895800 0.000000000
0.333333259 0.059895800 0.000000000
0.343750000 0.059895800 0.000000000
0.343750000 0.000000000 0.000000000
0.354166741 0.000000000 0.000000000
0.364583259 0.000000000 0.000000000
0.375000000 0.000000000 0.000000000
0.343750000 0.026523919 0.000000000
0.354166741 0.026523919 0.000000000
0.364583259 0.026523919 0.000000000
0.375000000 0.026523919 0.000000000
0.343750000 0.045524681 0.000000000
0.354166741 0.045524681 0.000000000
0.364583259 0.045524681 0.000000000
0.375000000 0.045524681 0.000000000
0.343750000 0.059895800 0.000000000
0.354166741 0.059895800 0.000000000
0.364583259 0.059895800 0.000000000
0.375000000 0.059895800 0.000000000
0.375000000 0.000000000 0.000000000
0.385416741 0.000000000 0.000000000
0.395833259 0.000000000 0.000000000
0.406250000 0.000000000 0.000000000
0.375000000 0.026523919 0.000000000
0.385416741 0.026523919 0.000000000
0.395833259 0.026523919 0.000000000
0.406250000 0.026523919 0.000000000
0.375000000 0.045524681 0.000000000
0.385416741 0.045524681 0.000000000
0.395833259 0.045524681 0.000000000
0.406250000 0.045524681 0.000000000
0.375000000 0.059895800 0.000000000
0.385416741 0.059895800 0.000000000
0.395833259 0.059895800 0.000000000
0.406250000 0.059895800 0.000000000
0.406250000 0.000000000 0.000000000
0.416666741 0.000000000 0.000000000
0.427083259 0.000000000 0.000000000
0.437500000 0.000000000 0.000000000
0.406250000 0.026523919 0.000000000
0.416666741 0.026523919 0.000000000
0.427083259 0.026523919 0.000000000
0.437500000 0.026523919 0.000000000
0.406250000 0.045524681 0.000000000
0.416666741 0.045524681 0.000000000
0.427083259 0.045524681 0.000000000
0.437500000 0.045524681 0.000000000
0.406250000 0.059895800 0.000000000
0.416666741 0.059895800 0.000000000
0.427083259 0.059895800 0.000000000
0.437500000 0.059895800 0.000000000
0.437500000 0.000000000 0.000000000
0.447916741 0.000000000 0.000000000
0.458333259 0.000000000 0.000000000
0.468750000 0.000000000 0.000000000
0.437500000 0.026523919 0.000000000
0.447916741 0.026523919 0.000000000
0.458333259 0.026523919 0.000000000
0.468750000 0.026523919 0.000000000
0.437500000 0.045524681 0.000000000
0.447916741 0.045524681 0.000000000
0.458333259 0.045524681 0.000000000
0.468750000 0.045524681 0.000000000
0.437500000 0.059895800 0.000000000
0.447916741 0.059895800 0.000000000
0.458333259 0.059895800 0.000000000
0.468750000 0.059895800 0.000000000
0.468750000 0.000000000 0.000000000
0.479166741 0.000000000 0.000000000
0.489583259 0.000000000 0.000000000
0.500000000 0.000000000 0.000000000
0.468750000 0.026523919 0.000000000
0.479166741 0.026523919 0.000000000
0.489583259 0.026523919 0.000000000
0.500000000 0.026523919 0.000000000
0.468750000 0.045524681 0.000000000
0.479166741 0.045524681 0.000000000
0.489583259 0.045524681 0.000000000
0.500000000 0.045524681 0.000000000
0.468750000 0.059895800 0.000000000
0.479166741 0.059895800 0.000000000
0.489583259 0.059895800 0.000000000
0.500000000 0.059895800 0.000000000
0.500000000 0.000000000 0.000000000
0.510416741 0.000000000 0.000000000
0.520833259 0.000000000 0.000000000
0.531250000 0.000000000 0.000000000
0.500000000 0.026523919 0.000000000
0.510416741 0.026523919 0.000000000
0.520833259 0.026523919 0.000000000
0.531250000 0.026523919 0.000000000
0.500000000 0.045524681 0.000000000
0.510416741 0.045524681 0.000000000
0.520833259 0.045524681 0.000000000
0.531250000 0.045524681 0.000000000
0.500000000 0.059895800 0.000000000
0.510416741 0.059895800 0.000000000
0.520833259 0.059895800 0.000000000
0.531250000 0.059895800 0.000000000
0.531250000 0.000000000 0.000000000
0.541666741 0.000000000 0.000000000
0.552083259 0.000000000 0.000000000
0.562500000 0.000000000 0.000000000
0.531250000 0.026523919 0.000000000
0.541666741 0.026523919 0.000000000
0.552083259 0.026523919 0.000000000
0.562500000 0.026523919 0.000000000
0.531250000 0.045524681 0.000000000
0.541666741 0.045524681 0.000000000
0.552083259 0.045524681 0.000000000
0.562500000 0.045524681 0.000000000
0.531250000 0.059895800 0.000000000
0.541666741 0.059895800 0.000000000
0.552083259 0.059895800 0.000000000
0.562500000 0.059895800 0.000000000
0.562500000 0.000000000 0.000000000
0.572916741 0.000000000 0.000000000
0.583333259 0.000000000 0.000000000
[...]
POINT_DATA 14400
VECTORS y float
1.000000000 0 0
0.898401330 0 0
0.827835638 0 0
0.776367152 0 0
0.898401330 0 0
0.839184329 0 0
0.786789341 0 0
0.741423559 0 0
0.827835638 0 0
0.786789341 0 0
0.745147375 0 0
0.705966925 0 0
0.776367152 0 0
0.741423559 0 0
0.705966925 0 0
0.672135071 0 0
0.776367152 0 0
0.733699868 0 0
0.696096349 0 0
0.661458996 0 0
0.741423559 0 0
0.702844211 0 0
0.669009236 0 0
0.637426606 0 0
0.705966925 0 0
0.671475550 0 0
0.640582332 0 0
0.611366532 0 0
0.672135071 0 0
0.641498381 0 0
0.613350173 0 0
0.586415792 0 0
0.661458996 0 0
0.628038419 0 0
0.595486296 0 0
0.563802648 0 0
0.637426606 0 0
0.606095640 0 0
0.574985703 0 0
0.544557550 0 0
0.611366532 0 0
0.582282302 0 0
0.553283754 0 0
0.524699864 0 0
0.586415792 0 0
0.559646094 0 0
0.532897820 0 0
0.506253362 0 0
0.563802648 0 0
0.532986303 0 0
0.503038350 0 0
0.473958809 0 0
0.544557550 0 0
0.515176499 0 0
0.486830144 0 0
0.459410685 0 0
0.524699864 0 0
0.496815363 0 0
0.469738331 0 0
0.443532574 0 0
0.506253362 0 0
0.479828009 0 0
0.453871958 0 0
0.428668433 0 0
0.473958809 0 0
0.445746689 0 0
0.418402906 0 0
0.391927477 0 0
0.459410685 0 0
0.432829298 0 0
0.407076450 0 0
0.382161625 0 0
0.443532574 0 0
0.418242181 0 0
0.393832645 0 0
0.370249718 0 0
0.428668433 0 0
0.404434614 0 0
0.381126354 0 0
0.358633583 0 0
0.391927477 0 0
0.366319578 0 0
0.341579965 0 0
0.317708652 0 0
0.382161625 0 0
0.358089585 0 0
0.334849045 0 0
0.312424034 0 0
0.370249718 0 0
0.347447976 0 0
0.325417516 0 0
0.304157238 0 0
0.358633583 0 0
0.336866182 0 0
0.315816219 0 0
0.295495820 0 0
0.317708652 0 0
0.294704970 0 0
0.272569526 0 0
0.251302336 0 0
0.312424034 0 0
0.290800157 0 0
0.269971624 0 0
0.249934253 0 0
0.304157238 0 0
0.283664238 0 0
0.263928572 0 0
0.244938471 0 0
0.295495820 0 0
0.275912650 0 0
0.257058517 0 0
0.238920866 0 0
0.251302336 0 0
0.230902864 0 0
0.211371590 0 0
0.192708527 0 0
0.249934253 0 0
0.230684135 0 0
0.212220311 0 0
0.194542125 0 0
0.244938471 0 0
0.226683701 0 0
0.209160301 0 0
0.192365826 0 0
0.238920866 0 0
0.221487888 0 0
0.204752385 0 0
0.188707990 0 0
0.192708527 0 0
0.174913261 0 0
0.157986157 0 0
0.141927227 0 0
0.194542125 0 0
0.177648594 0 0
0.161538862 0 0
0.146211773 0 0
0.192365826 0 0
0.176298045 0 0
0.160955687 0 0
0.146337678 0 0
0.188707990 0 0
0.173349030 0 0
0.158673900 0 0
0.144681763 0 0
0.141927227 0 0
0.126736160 0 0
0.112413226 0 0
0.098958434 0 0
0.146211773 0 0
0.131665946 0 0
0.117900177 0 0
0.104913064 0 0
0.146337678 0 0
0.132442764 0 0
0.119269037 0 0
0.106814393 0 0
0.144681763 0 0
0.131371406 0 0
0.118741133 0 0
0.106788941 0 0
0.098958434 0 0
0.086371563 0 0
0.074652798 0 0
0.063802148 0 0
0.104913064 0 0
0.092703020 0 0
0.081268504 0 0
0.070607814 0 0
0.106814393 0 0
0.095076641 0 0
0.084053283 0 0
0.073741724 0 0
0.106788941 0 0
0.095512511 0 0
0.084909025 0 0
0.074975411 0 0
0.063802148 0 0
0.053819467 0 0
0.044704873 0 0
0.036458371 0 0
0.070607814 0 0
0.060719038 0 0
0.051599956 0 0
0.043248158 0 0
0.073741724 0 0
0.064139091 0 0
0.055241436 0 0
0.047044525 0 0
0.074975411 0 0
0.065708128 0 0
0.057102332 0 0
0.049152757 0 0
0.036458371 0 0
0.029079874 0 0
0.022569450 0 0
0.016927102 0 0
0.043248158 0 0
0.035661919 0 0
0.028842597 0 0
0.022792249 0 0
0.047044525 0 0
0.039544669 0 0
0.032740368 0 0
0.026630657 0 0
0.049152757 0 0
0.041854079 0 0
0.035201113 0 0
0.029188648 0 0
0.016927102 0 0
0.012152784 0 0
0.008246530 0 0
0.005208340 0 0
0.022792249 0 0
0.017513538 0 0
0.013011713 0 0
0.009292639 0 0
0.026630657 0 0
0.021214661 0 0
0.016491859 0 0
0.012461812 0 0
0.029188648 0 0
0.023810669 0 0
0.019058178 0 0
0.014921401 0 0
0.005208340 0 0
0.003014084 0 0
0.001543210 0 0
0.000651043 0 0
0.009292639 0 0
0.006347268 0 0
0.004106980 0 0
0.002488250 0 0
0.012461812 0 0
0.009116366 0 0
0.006416504 0 0
0.004315488 0 0
0.014921401 0 0
0.011387515 0 0
0.008431649 0 0
0.006025903 0 0
0.000651043 0 0
0.000192902 0 0
0.000024113 0 0
0.000000000 0 0
0.002488250 0 0
0.001400130 0 0
0.000722013 0 0
0.000325874 0 0
0.004315488 0 0
0.002758161 0 0
0.001655686 0 0
0.000910803 0 0
0.006025903 0 0
0.004135946 0 0
0.002701794 0 0
0.001657043 0 0
0.000000000 0 0
0.000000000 0 0
0.000000000 0 0
0.000000000 0 0
0.000325874 0 0
0.000097695 0 0
-0.000020495 0 0
-0.000072658 0 0
0.000910803 0 0
0.000431500 0 0
0.000146765 0 0
-0.000009167 0 0
0.001657043 0 0
0.000934491 0 0
0.000463783 0 0
0.000173770 0 0
0.000000000 0 0
0.000000000 0 0
0.000000000 0 0
0.000000000 0 0
-0.000072658 0 0
-0.000096279 0 0
-0.000102941 0 0
-0.000097748 0 0
-0.000009167 0 0
-0.000093848 0 0
-0.000131981 0 0
-0.000140057 0 0
0.000173770 0 0
0.000000404 0 0
-0.000091947 0 0
-0.000131815 0 0
0.000000000 0 0
0.000000000 0 0
0.000000000 0 0
0.000000000 0 0
-0.000097748 0 0
-0.000085484 0 0
-0.000069642 0 0
-0.000053392 0 0
-0.000140057 0 0
-0.000132598 0 0
-0.000116245 0 0
-0.000095671 0 0
-0.000131815 0 0
-0.000144074 0 0
-0.000138966 0 0
-0.000123076 0 0
0.000000000 0 0
0.000000000 0 0
0.000000000 0 0
0.000000000 0 0
-0.000053392 0 0
-0.000039353 0 0
-0.000027929 0 0
-0.000018974 0 0
-0.000095671 0 0
-0.000074962 0 0
-0.000055869 0 0
-0.000039559 0 0
-0.000123076 0 0
-0.000102359 0 0
-0.000080249 0 0
-0.000059551 0 0
0.000000000 0 0
0.000000000 0 0
0.000000000 0 0
0.000000000 0 0
-0.000018974 0 0
-0.000012296 0 0
-0.000007529 0 0
-0.000004257 0 0
-0.000039559 0 0
-0.000026895 0 0
-0.000017535 0 0
-0.000010835 0 0
-0.000059551 0 0
-0.000042522 0 0
-0.000029228 0 0
-0.000019189 0 0
0.000000000 0 0
0.000000000 0 0
0.000000000 0 0
0.000000000 0 0
-0.000004257 0 0
-0.000002096 0 0
-0.000000762 0 0
-0.000000000 0 0
-0.000010835 0 0
-0.000006184 0 0
-0.000003110 0 0
-0.000001178 0 0
-0.000019189 0 0
-0.000011910 0 0
-0.000006853 0 0
-0.000003469 0 0
0.000000000 0 0
0.000000000 0 0
0.000000000 0 0
0.000000000 0 0
-0.000000000 0 0
0.000000418 0 0
0.000000601 0 0
0.000000631 0 0
-0.000001178 0 0
0.000000006 0 0
0.000000653 0 0
0.000000929 0 0
-0.000003469 0 0
-0.000001256 0 0
0.000000083 0 0
0.000000799 0 0
0.000000000 0 0
0.000000000 0 0
0.000000000 0 0
0.000000000 0 0
0.000000631 0 0
0.000000579 0 0
0.000000483 0 0
0.000000374 0 0
0.000000929 0 0
0.000000984 0 0
0.000000903 0 0
0.000000752 0 0
0.000000799 0 0
0.000001117 0 0
0.000001168 0 0
0.000001060 0 0
0.000000000 0 0
0.000000000 0 0
0.000000000 0 0
0.000000000 0 0
0.000000374 0 0
0.000000275 0 0
0.000000192 0 0
0.000000126 0 0
0.000000752 0 0
0.000000589 0 0
0.000000436 0 0
0.000000304 0 0
0.000001060 0 0
0.000000889 0 0
0.000000696 0 0
0.000000512 0 0
0.000000000 0 0
0.000000000 0 0
0.000000000 0 0
0.000000000 0 0
0.000000126 0 0
0.000000078 0 0
0.000000044 0 0
0.000000021 0 0
0.000000304 0 0
0.000000202 0 0
0.000000127 0 0
0.000000074 0 0
0.000000512 0 0
0.000000360 0 0
0.000000243 0 0
0.000000154 0 0
0.000000000 0 0
0.000000000 0 0
0.000000000 0 0
0.000000000 0 0
0.000000021 0 0
0.000000006 0 0
-0.000000002 0 0
-0.000000006 0 0
0.000000074 0 0
0.000000037 0 0
0.000000013 0 0
-0.000000001 0 0
0.000000154 0 0
0.000000091 0 0
0.000000047 0 0
0.000000018 0 0
0.000000000 0 0
0.000000000 0 0
0.000000000 0 0
0.000000000 0 0
-0.000000006 0 0
-0.000000008 0 0
-0.000000008 0 0
-0.000000007 0 0
-0.000000001 0 0
-0.000000009 0 0
-0.000000012 0 0
-0.000000013 0 0
0.000000018 0 0
0.000000000 0 0
-0.000000010 0 0
-0.000000015 0 0
0.000000000 0 0
0.000000000 0 0
0.000000000 0 0
0.000000000 0 0
-0.000000007 0 0
-0.000000006 0 0
-0.000000005 0 0
-0.000000004 0 0
-0.000000013 0 0
-0.000000012 0 0
-0.000000011 0 0
-0.000000008 0 0
-0.000000015 0 0
-0.000000016 0 0
-0.000000015 0 0
-0.000000012 0 0
0.000000000 0 0
0.000000000 0 0
0.000000000 0 0
0.000000000 0 0
-0.000000004 0 0
-0.000000003 0 0
-0.000000002 0 0
0.000000000 0 0
-0.000000008 0 0
-0.000000006 0 0
-0.000000003 0 0
0.000000000 0 0
-0.000000012 0 0
-0.000000009 0 0
-0.000000005 0 0
0.000000000 0 0
0.776367152 0 0
0.741423559 0 0
0.705966925 0 0
0.672135071 0 0
0.733699868 0 0
0.702844211 0 0
0.671475550 0 0
0.641498381 0 0
0.696096349 0 0
0.669009236 0 0
0.640582332 0 0
0.613350173 0 0
0.661458996 0 0
0.637426606 0 0
0.611366532 0 0
0.586415792 0 0
0.672135071 0 0
0.641498381 0 0
0.613350173 0 0
0.586415792 0 0
0.641498381 0 0
0.614295177 0 0
0.589160292 0 0
0.564865666 0 0
0.613350173 0 0
0.589160292 0 0
0.567116310 0 0
0.545634755 0 0
0.586415792 0 0
0.564865666 0 0
0.545634755 0 0
0.526796671 0 0
0.586415792 0 0
0.559646094 0 0
0.532897820 0 0
0.506253362 0 0
0.564865666 0 0
0.540401653 0 0
0.515634258 0 0
0.490647943 0 0
0.545634755 0 0
0.523436333 0 0
0.500459485 0 0
0.476946831 0 0
0.526796671 0 0
0.506804462 0 0
0.485628865 0 0
0.463620023 0 0
0.506253362 0 0
0.479828009 0 0
0.453871958 0 0
0.428668433 0 0
0.490647943 0 0
0.465575093 0 0
0.440741539 0 0
0.416521074 0 0
0.476946831 0 0
0.453163670 0 0
0.429466917 0 0
0.406236167 0 0
0.463620023 0 0
0.441136360 0 0
0.418569368 0 0
0.396318783 0 0
0.428668433 0 0
0.404434614 0 0
0.381126354 0 0
0.358633583 0 0
0.416521074 0 0
0.393208472 0 0
0.370783919 0 0
0.349148615 0 0
0.406236167 0 0
0.383779600 0 0
0.362120492 0 0
0.341210702 0 0
0.396318783 0 0
0.374716465 0 0
0.353822673 0 0
0.333629753 0 0
0.358633583 0 0
0.336866182 0 0
0.315816219 0 0
0.295495820 0 0
0.349148615 0 0
0.328220000 0 0
0.307981715 0 0
0.288433669 0 0
0.341210702 0 0
0.321005672 0 0
0.301475816 0 0
0.282595127 0 0
0.333629753 0 0
0.314123823 0 0
0.295266025 0 0
0.277011244 0 0
0.295495820 0 0
0.275912650 0 0
0.257058517 0 0
0.238920866 0 0
0.288433669 0 0
0.269575648 0 0
0.251407978 0 0
0.233930885 0 0
0.282595127 0 0
0.264345241 0 0
0.246738873 0 0
0.229796379 0 0
0.277011244 0 0
0.259328271 0 0
0.242241467 0 0
0.225789071 0 0
0.238920866 0 0
0.221487888 0 0
0.204752385 0 0
0.188707990 0 0
0.233930885 0 0
0.217142285 0 0
0.201031692 0 0
0.185586335 0 0
0.229796379 0 0
0.213531514 0 0
0.197932071 0 0
0.182979238 0 0
0.225789071 0 0
0.209999478 0 0
0.194861647 0 0
0.180354667 0 0
0.188707990 0 0
0.173349030 0 0
0.158673900 0 0
0.144681763 0 0
0.185586335 0 0
0.170795200 0 0
0.156654993 0 0
0.143164201 0 0
0.182979238 0 0
0.168656703 0 0
0.154958468 0 0
0.141881030 0 0
0.180354667 0 0
0.166459935 0 0
0.153168030 0 0
0.140471817 0 0
0.144681763 0 0
0.131371406 0 0
0.118741133 0 0
0.106788941 0 0
0.143164201 0 0
0.130321276 0 0
0.118125052 0 0
0.106574346 0 0
0.141881030 0 0
0.129421441 0 0
0.117579234 0 0
0.106354497 0 0
0.140471817 0 0
0.128365596 0 0
0.116849363 0 0
0.105924530 0 0
0.106788941 0 0
0.095512511 0 0
0.084909025 0 0
0.074975411 0 0
0.106574346 0 0
0.095667519 0 0
0.085401497 0 0
0.075772766 0 0
0.106354497 0 0
0.095746636 0 0
0.085752522 0 0
0.076368344 0 0
0.105924530 0 0
0.095591646 0 0
0.085847785 0 0
0.076689143 0 0
0.074975411 0 0
0.065708128 0 0
0.057102332 0 0
0.049152757 0 0
0.075772766 0 0
0.066777436 0 0
0.058410392 0 0
0.050666158 0 0
0.076368344 0 0
0.067590032 0 0
0.059412626 0 0
0.051830903 0 0
0.076689143 0 0
0.068111726 0 0
0.060110753 0 0
0.052681240 0 0
0.049152757 0 0
0.041854079 0 0
0.035201113 0 0
0.029188648 0 0
0.050666158 0 0
0.043538858 0 0
0.037021225 0 0
0.031105606 0 0
0.051830903 0 0
0.044839109 0 0
0.038429450 0 0
0.032593599 0 0
0.052681240 0 0
0.045817694 0 0
0.039512566 0 0
0.033757786 0 0
0.029188648 0 0
0.023810669 0 0
0.019058178 0 0
0.014921401 0 0
0.031105606 0 0
0.025783114 0 0
0.021040054 0 0
0.016861505 0 0
0.032593599 0 0
0.027321925 0 0
0.022599639 0 0
0.018410649 0 0
0.033757786 0 0
0.028544069 0 0
0.023857246 0 0
0.019681925 0 0
0.014921401 0 0
0.011387515 0 0
0.008431649 0 0
0.006025903 0 0
0.016861505 0 0
0.013231533 0 0
0.010130218 0 0
0.007536635 0 0
0.018410649 0 0
0.014738056 0 0
0.011561765 0 0
0.008860868 0 0
0.019681925 0 0
0.016001408 0 0
0.012793772 0 0
0.010035784 0 0
0.006025903 0 0
0.004135946 0 0
0.002701794 0 0
0.001657043 0 0
0.007536635 0 0
0.005425594 0 0
0.003754880 0 0
0.002478022 0 0
0.008860868 0 0
0.006611882 0 0
0.004781006 0 0
0.003331861 0 0
0.010035784 0 0
0.007702749 0 0
0.005764112 0 0
0.004187854 0 0
0.001657043 0 0
0.000934491 0 0
0.000463783 0 0
0.000173770 0 0
0.002478022 0 0
0.001545332 0 0
0.000894292 0 0
0.000459171 0 0
0.003331861 0 0
0.002225025 0 0
0.001408920 0 0
0.000828926 0 0
0.004187854 0 0
0.002940159 0 0
0.001980022 0 0
0.001264645 0 0
0.000173770 0 0
0.000000404 0 0
-0.000091947 0 0
-0.000131815 0 0
0.000459171 0 0
0.000179089 0 0
0.000012571 0 0
-0.000077009 0 0
0.000828926 0 0
0.000432816 0 0
0.000177922 0 0
0.000023972 0 0
0.001264645 0 0
0.000751691 0 0
0.000400690 0 0
0.000171637 0 0
-0.000131815 0 0
-0.000144074 0 0
-0.000138966 0 0
-0.000123076 0 0
-0.000077009 0 0
-0.000121908 0 0
-0.000136904 0 0
-0.000132407 0 0
0.000023972 0 0
-0.000065153 0 0
-0.000108933 0 0
-0.000122692 0 0
0.000171637 0 0
0.000027873 0 0
-0.000053870 0 0
-0.000093516 0 0
-0.000123076 0 0
-0.000102359 0 0
-0.000080249 0 0
-0.000059551 0 0
-0.000132407 0 0
-0.000117744 0 0
-0.000097922 0 0
-0.000076864 0 0
-0.000122692 0 0
-0.000120004 0 0
-0.000107458 0 0
-0.000089897 0 0
-0.000093516 0 0
-0.000108694 0 0
-0.000107857 0 0
-0.000097168 0 0
-0.000059551 0 0
-0.000042522 0 0
-0.000029228 0 0
-0.000019189 0 0
-0.000076864 0 0
-0.000057875 0 0
-0.000041780 0 0
-0.000028782 0 0
-0.000089897 0 0
-0.000071552 0 0
-0.000054225 0 0
-0.000039107 0 0
-0.000097168 0 0
-0.000082122 0 0
-0.000065563 0 0
-0.000049666 0 0
-0.000019189 0 0
-0.000011910 0 0
-0.000006853 0 0
-0.000003469 0 0
-0.000028782 0 0
-0.000018952 0 0
-0.000011831 0 0
-0.000006831 0 0
-0.000039107 0 0
-0.000027108 0 0
-0.000018007 0 0
-0.000011300 0 0
-0.000049666 0 0
-0.000036208 0 0
-0.000025371 0 0
-0.000016934 0 0
-0.000003469 0 0
-0.000001256 0 0
0.000000083 0 0
0.000000799 0 0
-0.000006831 0 0
-0.000003403 0 0
-0.000001184 0 0
0.000000147 0 0
-0.000011300 0 0
-0.000006507 0 0
-0.000003235 0 0
-0.000001116 0 0
-0.000016934 0 0
-0.000010649 0 0
-0.000006158 0 0
-0.000003072 0 0
0.000000799 0 0
0.000001117 0 0
0.000001168 0 0
0.000001060 0 0
0.000000147 0 0
0.000000880 0 0
0.000001192 0 0
0.000001228 0 0
-0.000001116 0 0
0.000000190 0 0
0.000000896 0 0
0.000001186 0 0
-0.000003072 0 0
-0.000001034 0 0
0.000000206 0 0
0.000000866 0 0
0.000001060 0 0
0.000000889 0 0
0.000000696 0 0
0.000000512 0 0
0.000001228 0 0
0.000001119 0 0
0.000000934 0 0
0.000000726 0 0
0.000001186 0 0
0.000001224 0 0
0.000001108 0 0
0.000000919 0 0
0.000000866 0 0
0.000001148 0 0
0.000001178 0 0
0.000001062 0 0
0.000000512 0 0
0.000000360 0 0
0.000000243 0 0
0.000000154 0 0
0.000000726 0 0
0.000000539 0 0
0.000000384 0 0
0.000000260 0 0
0.000000919 0 0
0.000000722 0 0
0.000000542 0 0
0.000000387 0 0
0.000001062 0 0
0.000000893 0 0
0.000000708 0 0
0.000000533 0 0
0.000000154 0 0
0.000000091 0 0
0.000000047 0 0
0.000000018 0 0
0.000000260 0 0
0.000000166 0 0
0.000000099 0 0
0.000000053 0 0
0.000000387 0 0
0.000000264 0 0
0.000000172 0 0
0.000000104 0 0
0.000000533 0 0
0.000000385 0 0
0.000000268 0 0
0.000000176 0 0
0.000000018 0 0
0.000000000 0 0
-0.000000010 0 0
-0.000000015 0 0
0.000000053 0 0
0.000000021 0 0
0.000000001 0 0
-0.000000011 0 0
0.000000104 0 0
0.000000056 0 0
0.000000023 0 0
0.000000001 0 0
0.000000176 0 0
0.000000107 0 0
0.000000058 0 0
0.000000024 0 0
-0.000000015 0 0
-0.000000016 0 0
-0.000000015 0 0
-0.000000012 0 0
-0.000000011 0 0
-0.000000016 0 0
-0.000000017 0 0
-0.000000016 0 0
0.000000001 0 0
-0.000000011 0 0
-0.000000016 0 0
-0.000000016 0 0
0.000000024 0 0
0.000000002 0 0
-0.000000010 0 0
-0.000000014 0 0
-0.000000012 0 0
-0.000000009 0 0
-0.000000005 0 0
0.000000000 0 0
-0.000000016 0 0
-0.000000012 0 0
-0.000000006 0 0
0.000000000 0 0
-0.000000016 0 0
-0.000000013 0 0
-0.000000007 0 0
0.000000000 0 0
-0.000000014 0 0
-0.000000012 0 0
-0.000000007 0 0
0.000000000 0 0
0.661458996 0 0
0.637426606 0 0
0.611366532 0 0
0.586415792 0 0
0.628038419 0 0
0.606095640 0 0
0.582282302 0 0
0.559646094 0 0
0.595486296 0 0
0.574985703 0 0
0.553283754 0 0
0.532897820 0 0
0.563802648 0 0
0.544557550 0 0
0.524699864 0 0
0.506253362 0 0
0.586415792 0 0
0.564865666 0 0
0.545634755 0 0
0.526796671 0 0
0.559646094 0 0
0.540401653 0 0
0.523436333 0 0
0.506804462 0 0
0.532897820 0 0
0.515634258 0 0
0.500459485 0 0
0.485628865 0 0
0.506253362 0 0
0.490647943 0 0
0.476946831 0 0
0.463620023 0 0
0.526796671 0 0
0.506804462 0 0
0.485628865 0 0
0.463620023 0 0
0.506804462 0 0
0.488927693 0 0
0.469697729 0 0
0.449373589 0 0
0.485628865 0 0
0.469697729 0 0
0.452422072 0 0
0.433857850 0 0
0.463620023 0 0
0.449373589 0 0
0.433857850 0 0
0.416959178 0 0
0.463620023 0 0
0.441136360 0 0
0.418569368 0 0
0.396318783 0 0
0.449373589 0 0
0.428254745 0 0
0.406803150 0 0
0.385521201 0 0
0.433857850 0 0
0.414156885 0 0
0.393855157 0 0
0.373584502 0 0
0.416959178 0 0
0.398699794 0 0
0.379645261 0 0
0.360496962 0 0
0.396318783 0 0
0.374716465 0 0
0.353822673 0 0
0.333629753 0 0
0.385521201 0 0
0.364825444 0 0
0.344789605 0 0
0.325401548 0 0
0.373584502 0 0
0.353865113 0 0
0.334771197 0 0
0.316265308 0 0
0.360496962 0 0
0.341831952 0 0
0.323729898 0 0
0.306146110 0 0
0.333629753 0 0
0.314123823 0 0
0.295266025 0 0
0.277011244 0 0
0.325401548 0 0
0.306643925 0 0
0.288479024 0 0
0.270863908 0 0
0.316265308 0 0
0.298311296 0 0
0.280878698 0 0
0.263938335 0 0
0.306146110 0 0
0.289040096 0 0
0.272388107 0 0
0.256170570 0 0
0.277011244 0 0
0.259328271 0 0
0.242241467 0 0
0.225789071 0 0
0.270863908 0 0
0.253770550 0 0
0.237230966 0 0
0.221292069 0 0
0.263938335 0 0
0.247474121 0 0
0.231522750 0 0
0.216133994 0 0
0.256170570 0 0
0.240379990 0 0
0.225057139 0 0
0.210254846 0 0
0.225789071 0 0
0.209999478 0 0
0.194861647 0 0
0.180354667 0 0
0.221292069 0 0
0.205990115 0 0
0.191319058 0 0
0.177262181 0 0
0.216133994 0 0
0.201347821 0 0
0.187165300 0 0
0.173577687 0 0
0.210254846 0 0
0.196017024 0 0
0.182351879 0 0
0.169258680 0 0
0.180354667 0 0
0.166459935 0 0
0.153168030 0 0
0.140471817 0 0
0.177262181 0 0
0.163803458 0 0
0.150929877 0 0
0.138629109 0 0
0.173577687 0 0
0.160574734 0 0
0.148140459 0 0
0.136257373 0 0
0.169258680 0 0
0.156733391 0 0
0.144758721 0 0
0.133314054 0 0
0.140471817 0 0
0.128365596 0 0
0.116849363 0 0
0.105924530 0 0
0.138629109 0 0
0.126891247 0 0
0.115716291 0 0
0.105106660 0 0
0.136257373 0 0
0.124911327 0 0
0.114101756 0 0
0.103831432 0 0
0.133314054 0 0
0.122382578 0 0
0.111962664 0 0
0.102056469 0 0
0.105924530 0 0
0.095591646 0 0
0.085847785 0 0
0.076689143 0 0
0.105106660 0 0
0.095063780 0 0
0.085585273 0 0
0.076667762 0 0
0.103831432 0 0
0.094102196 0 0
0.084912332 0 0
0.076259187 0 0
0.102056469 0 0
0.092665498 0 0
0.083788612 0 0
0.075424004 0 0
0.076689143 0 0
0.068111726 0 0
0.060110753 0 0
0.052681240 0 0
0.076667762 0 0
0.068307561 0 0
0.060499863 0 0
0.053239548 0 0
0.076259187 0 0
0.068139616 0 0
0.060548624 0 0
0.053480719 0 0
0.075424004 0 0
0.067569206 0 0
0.060219071 0 0
0.053367776 0 0
0.052681240 0 0
0.045817694 0 0
0.039512566 0 0
0.033757786 0 0
0.053239548 0 0
0.046521070 0 0
0.040337272 0 0
0.034680570 0 0
0.053480719 0 0
0.046930128 0 0
0.040890036 0 0
0.035353343 0 0
0.053367776 0 0
0.047009356 0 0
0.041137251 0 0
0.035744744 0 0
0.033757786 0 0
0.028544069 0 0
0.023857246 0 0
0.019681925 0 0
0.034680570 0 0
0.029542207 0 0
0.024908793 0 0
0.020765764 0 0
0.035353343 0 0
0.030311803 0 0
0.025752647 0 0
0.021661956 0 0
0.035744744 0 0
0.030824013 0 0
0.026362775 0 0
0.022347632 0 0
0.019681925 0 0
0.016001408 0 0
0.012793772 0 0
0.010035784 0 0
0.020765764 0 0
0.017096940 0 0
0.013879720 0 0
0.011089885 0 0
0.021661956 0 0
0.018024160 0 0
0.014817100 0 0
0.012016964 0 0
0.022347632 0 0
0.018763607 0 0
0.015589401 0 0
0.012802134 0 0
0.010035784 0 0
0.007702749 0 0
0.005764112 0 0
0.004187854 0 0
0.011089885 0 0
0.008702278 0 0
0.006687989 0 0
0.005017168 0 0
0.012016964 0 0
0.009599140 0 0
0.007535837 0 0
0.005798464 0 0
0.012802134 0 0
0.010378152 0 0
0.008290707 0 0
0.006512278 0 0
0.004187854 0 0
0.002940159 0 0
0.001980022 0 0
0.001264645 0 0
0.005017168 0 0
0.003659233 0 0
0.002580679 0 0
0.001747271 0 0
0.005798464 0 0
0.004358396 0 0
0.003186871 0 0
0.002255096 0 0
0.006512278 0 0
0.005015708 0 0
0.003775307 0 0
0.002765748 0 0
0.001264645 0 0
0.000751691 0 0
0.000400690 0 0