# vtk DataFile Version 2.0
Square plate test
ASCII
DATASET UNSTRUCTURED_GRID
POINTS 1089 float
0 0.000000000 0
0.031250000 0.000000000 0
0.062500000 0.000000000 0
0.093750000 0.000000000 0
0.125000000 0.000000000 0
0.156250000 0.000000000 0
0.187500000 0.000000000 0
0.218750000 0.000000000 0
0.250000000 0.000000000 0
0.281250000 0.000000000 0
0.312500000 0.000000000 0
0.343750000 0.000000000 0
0.375000000 0.000000000 0
0.406250000 0.000000000 0
0.437500000 0.000000000 0
0.468750000 0.000000000 0
0.500000000 0.000000000 0
0.531250000 0.000000000 0
0.562500000 0.000000000 0
0.593750000 0.000000000 0
0.625000000 0.000000000 0
0.656250000 0.000000000 0
0.687500000 0.000000000 0
0.718750000 0.000000000 0
0.750000000 0.000000000 0
0.781250000 0.000000000 0
0.812500000 0.000000000 0
0.843750000 0.000000000 0
0.875000000 0.000000000 0
0.906250000 0.000000000 0
0.937500000 0.000000000 0
0.968750000 0.000000000 0
1.000000000 0.000000000 0
0.000000000 0.031250000 0
0.031250000 0.031250000 0
0.062500000 0.031250000 0
0.093750000 0.031250000 0
0.125000000 0.031250000 0
0.156250000 0.031250000 0
0.187500000 0.031250000 0
0.218750000 0.031250000 0
0.250000000 0.031250000 0
0.281250000 0.031250000 0
0.312500000 0.031250000 0
0.343750000 0.031250000 0
0.375000000 0.031250000 0
0.406250000 0.031250000 0
0.437500000 0.031250000 0
0.468750000 0.031250000 0
0.500000000 0.031250000 0
0.531250000 0.031250000 0
0.562500000 0.031250000 0
0.593750000 0.031250000 0
0.625000000 0.031250000 0
0.656250000 0.031250000 0
0.687500000 0.031250000 0
0.718750000 0.031250000 0
0.750000000 0.031250000 0
0.781250000 0.031250000 0
0.812500000 0.031250000 0
0.843750000 0.031250000 0
0.875000000 0.031250000 0
0.906250000 0.031250000 0
0.937500000 0.031250000 0
0.968750000 0.031250000 0
1.000000000 0.031250000 0
0.000000000 0.062500000 0
0.031250000 0.062500000 0
0.062500000 0.062500000 0
0.093750000 0.062500000 0
0.125000000 0.062500000 0
0.156250000 0.062500000 0
0.187500000 0.062500000 0
0.218750000 0.062500000 0
0.250000000 0.062500000 0
0.281250000 0.062500000 0
0.312500000 0.062500000 0
0.343750000 0.062500000 0
0.375000000 0.062500000 0
0.406250000 0.062500000 0
0.437500000 0.062500000 0
0.468750000 0.062500000 0
0.500000000 0.062500000 0
0.531250000 0.062500000 0
0.562500000 0.062500000 0
0.593750000 0.062500000 0
0.625000000 0.062500000 0
0.656250000 0.062500000 0
0.687500000 0.062500000 0
0.718750000 0.062500000 0
0.750000000 0.062500000 0
0.781250000 0.062500000 0
0.812500000 0.062500000 0
0.843750000 0.062500000 0
0.875000000 0.062500000 0
0.906250000 0.062500000 0
0.937500000 0.062500000 0
0.968750000 0.062500000 0
1.000000000 0.062500000 0
0.000000000 0.093750000 0
0.031250000 0.093750000 0
0.062500000 0.093750000 0
0.093750000 0.093750000 0
0.125000000 0.093750000 0
0.156250000 0.093750000 0
0.187500000 0.093750000 0
0.218750000 0.093750000 0
0.250000000 0.093750000 0
0.281250000 0.093750000 0
0.312500000 0.093750000 0
0.343750000 0.093750000 0
0.375000000 0.093750000 0
0.406250000 0.093750000 0
0.437500000 0.093750000 0
0.468750000 0.093750000 0
0.500000000 0.093750000 0
0.531250000 0.093750000 0
0.562500000 0.093750000 0
0.593750000 0.093750000 0
0.625000000 0.093750000 0
0.656250000 0.093750000 0
0.687500000 0.093750000 0
0.718750000 0.093750000 0
0.750000000 0.093750000 0
0.781250000 0.093750000 0
0.812500000 0.093750000 0
0.843750000 0.093750000 0
0.875000000 0.093750000 0
0.906250000 0.093750000 0
0.937500000 0.093750000 0
0.968750000 0.093750000 0
1.000000000 0.093750000 0
0.000000000 0.125000000 0
0.031250000 0.125000000 0
0.062500000 0.125000000 0
0.093750000 0.125000000 0
0.125000000 0.125000000 0
0.156250000 0.125000000 0
0.187500000 0.125000000 0
0.218750000 0.125000000 0
0.250000000 0.125000000 0
0.281250000 0.125000000 0
0.312500000 0.125000000 0
0.343750000 0.125000000 0
0.375000000 0.125000000 0
0.406250000 0.125000000 0
0.437500000 0.125000000 0
0.468750000 0.125000000 0
0.500000000 0.125000000 0
0.531250000 0.125000000 0
0.562500000 0.125000000 0
0.593750000 0.125000000 0
0.625000000 0.125000000 0
0.656250000 0.125000000 0
0.687500000 0.125000000 0
0.718750000 0.125000000 0
0.750000000 0.125000000 0
0.781250000 0.125000000 0
0.812500000 0.125000000 0
0.843750000 0.125000000 0
0.875000000 0.125000000 0
0.906250000 0.125000000 0
0.937500000 0.125000000 0
0.968750000 0.125000000 0
1.000000000 0.125000000 0
0.000000000 0.156250000 0
0.031250000 0.156250000 0
0.062500000 0.156250000 0
0.093750000 0.156250000 0
0.125000000 0.156250000 0
0.156250000 0.156250000 0
0.187500000 0.156250000 0
0.218750000 0.156250000 0
0.250000000 0.156250000 0
0.281250000 0.156250000 0
0.312500000 0.156250000 0
0.343750000 0.156250000 0
0.375000000 0.156250000 0
0.406250000 0.156250000 0
0.437500000 0.156250000 0
0.468750000 0.156250000 0
0.500000000 0.156250000 0
0.531250000 0.156250000 0
0.562500000 0.156250000 0
0.593750000 0.156250000 0
0.625000000 0.156250000 0
0.656250000 0.156250000 0
0.687500000 0.156250000 0
0.718750000 0.156250000 0
0.750000000 0.156250000 0
0.781250000 0.156250000 0
0.812500000 0.156250000 0
0.843750000 0.156250000 0
0.875000000 0.156250000 0
0.906250000 0.156250000 0
0.937500000 0.156250000 0
0.968750000 0.156250000 0
1.000000000 0.156250000 0
0.000000000 0.187500000 0
0.031250000 0.187500000 0
0.062500000 0.187500000 0
0.093750000 0.187500000 0
0.125000000 0.187500000 0
0.156250000 0.187500000 0
0.187500000 0.187500000 0
0.218750000 0.187500000 0
0.250000000 0.187500000 0
0.281250000 0.187500000 0
0.312500000 0.187500000 0
0.343750000 0.187500000 0
0.375000000 0.187500000 0
0.406250000 0.187500000 0
0.437500000 0.187500000 0
0.468750000 0.187500000 0
0.500000000 0.187500000 0
0.531250000 0.187500000 0
0.562500000 0.187500000 0
0.593750000 0.187500000 0
0.625000000 0.187500000 0
0.656250000 0.187500000 0
0.687500000 0.187500000 0
0.718750000 0.187500000 0
0.750000000 0.187500000 0
0.781250000 0.187500000 0
0.812500000 0.187500000 0
0.843750000 0.187500000 0
0.875000000 0.187500000 0
0.906250000 0.187500000 0
0.937500000 0.187500000 0
0.968750000 0.187500000 0
1.000000000 0.187500000 0
0.000000000 0.218750000 0
0.031250000 0.218750000 0
0.062500000 0.218750000 0
0.093750000 0.218750000 0
0.125000000 0.218750000 0
0.156250000 0.218750000 0
0.187500000 0.218750000 0
0.218750000 0.218750000 0
0.250000000 0.218750000 0
0.281250000 0.218750000 0
0.312500000 0.218750000 0
0.343750000 0.218750000 0
0.375000000 0.218750000 0
0.406250000 0.218750000 0
0.437500000 0.218750000 0
0.468750000 0.218750000 0
0.500000000 0.218750000 0
0.531250000 0.218750000 0
0.562500000 0.218750000 0
0.593750000 0.218750000 0
0.625000000 0.218750000 0
0.656250000 0.218750000 0
0.687500000 0.218750000 0
0.718750000 0.218750000 0
0.750000000 0.218750000 0
0.781250000 0.218750000 0
0.812500000 0.218750000 0
0.843750000 0.218750000 0
0.875000000 0.218750000 0
0.906250000 0.218750000 0
0.937500000 0.218750000 0
0.968750000 0.218750000 0
1.000000000 0.218750000 0
0.000000000 0.250000000 0
0.031250000 0.250000000 0
0.062500000 0.250000000 0
0.093750000 0.250000000 0
0.125000000 0.250000000 0
0.156250000 0.250000000 0
0.187500000 0.250000000 0
0.218750000 0.250000000 0
0.250000000 0.250000000 0
0.281250000 0.250000000 0
0.312500000 0.250000000 0
0.343750000 0.250000000 0
0.375000000 0.250000000 0
0.406250000 0.250000000 0
0.437500000 0.250000000 0
0.468750000 0.250000000 0
0.500000000 0.250000000 0
0.531250000 0.250000000 0
0.562500000 0.250000000 0
0.593750000 0.250000000 0
0.625000000 0.250000000 0
0.656250000 0.250000000 0
0.687500000 0.250000000 0
0.718750000 0.250000000 0
0.750000000 0.250000000 0
0.781250000 0.250000000 0
0.812500000 0.250000000 0
0.843750000 0.250000000 0
0.875000000 0.250000000 0
0.906250000 0.250000000 0
0.937500000 0.250000000 0
0.968750000 0.250000000 0
1.000000000 0.250000000 0
0.000000000 0.281250000 0
0.031250000 0.281250000 0
0.062500000 0.281250000 0
0.093750000 0.281250000 0
0.125000000 0.281250000 0
0.156250000 0.281250000 0
0.187500000 0.281250000 0
0.218750000 0.281250000 0
0.250000000 0.281250000 0
0.281250000 0.281250000 0
0.312500000 0.281250000 0
0.343750000 0.281250000 0
0.375000000 0.281250000 0
0.406250000 0.281250000 0
0.437500000 0.281250000 0
0.468750000 0.281250000 0
0.500000000 0.281250000 0
0.531250000 0.281250000 0
0.562500000 0.281250000 0
0.593750000 0.281250000 0
0.625000000 0.281250000 0
0.656250000 0.281250000 0
0.687500000 0.281250000 0
0.718750000 0.281250000 0
0.750000000 0.281250000 0
0.781250000 0.281250000 0
0.812500000 0.281250000 0
0.843750000 0.281250000 0
0.875000000 0.281250000 0
0.906250000 0.281250000 0
0.937500000 0.281250000 0
0.968750000 0.281250000 0
1.000000000 0.281250000 0
0.000000000 0.312500000 0
0.031250000 0.312500000 0
0.062500000 0.312500000 0
0.093750000 0.312500000 0
0.125000000 0.312500000 0
0.156250000 0.312500000 0
0.187500000 0.312500000 0
0.218750000 0.312500000 0
0.250000000 0.312500000 0
0.281250000 0.312500000 0
0.312500000 0.312500000 0
0.343750000 0.312500000 0
0.375000000 0.312500000 0
0.406250000 0.312500000 0
0.437500000 0.312500000 0
0.468750000 0.312500000 0
0.500000000 0.312500000 0
0.531250000 0.312500000 0
0.562500000 0.312500000 0
0.593750000 0.312500000 0
0.625000000 0.312500000 0
0.656250000 0.312500000 0
0.687500000 0.312500000 0
0.718750000 0.312500000 0
0.750000000 0.312500000 0
0.781250000 0.312500000 0
0.812500000 0.312500000 0
0.843750000 0.312500000 0
0.875000000 0.312500000 0
0.906250000 0.312500000 0
0.937500000 0.312500000 0
0.968750000 0.312500000 0
1.000000000 0.312500000 0
0.000000000 0.343750000 0
0.031250000 0.343750000 0
0.062500000 0.343750000 0
0.093750000 0.343750000 0
0.125000000 0.343750000 0
0.156250000 0.343750000 0
0.187500000 0.343750000 0
0.218750000 0.343750000 0
0.250000000 0.343750000 0
0.281250000 0.343750000 0
0.312500000 0.343750000 0
0.343750000 0.343750000 0
0.375000000 0.343750000 0
0.406250000 0.343750000 0
0.437500000 0.343750000 0
0.468750000 0.343750000 0
0.500000000 0.343750000 0
0.531250000 0.343750000 0
[...]
POINT_DATA 1089
VECTORS y float
0 0 0.000000000
0 0 1.000000000
0 0 1.000000000
0 0 1.000000000
0 0 1.000000000
0 0 1.000000000
0 0 1.000000000
0 0 1.000000000
0 0 1.000000000
0 0 1.000000000
0 0 1.000000000
0 0 1.000000000
0 0 1.000000000
0 0 1.000000000
0 0 1.000000000
0 0 1.000000000
0 0 1.000000000
0 0 0.000000000
0 0 0.000000000
0 0 0.000000000
0 0 0.000000000
0 0 0.000000000
0 0 0.000000000
0 0 0.000000000
0 0 0.000000000
0 0 0.000000000
0 0 0.000000000
0 0 0.000000000
0 0 0.000000000
0 0 0.000000000
0 0 0.000000000
0 0 0.000000000
0 0 0.000000000
0 0 0.000000000
0 0 0.247428881
0 0 0.325874161
0 0 0.341392468
0 0 0.341489154
0 0 0.335941147
0 0 0.332488857
0 0 0.327813977
0 0 0.322547212
0 0 0.314811543
0 0 0.303784938
0 0 0.287725425
0 0 0.264816188
0 0 0.232799722
0 0 0.189628553
0 0 0.134890381
0 0 0.072731451
0 0 0.021959322
0 0 0.001074681
0 0 -0.002686665
0 0 -0.002063309
0 0 -0.000978415
0 0 -0.000373701
0 0 -0.000089561
0 0 0.000005759
0 0 0.000027809
0 0 0.000022117
0 0 0.000012705
0 0 0.000005794
0 0 0.000002217
0 0 0.000000617
0 0 -0.000000023
0 0 0.000000000
0 0 0.000000000
0 0 0.151935328
0 0 0.447445987
0 0 0.568583619
0 0 0.632626412
0 0 0.642385050
0 0 0.640402644
0 0 0.633391553
0 0 0.625129710
0 0 0.614630503
0 0 0.600055401
0 0 0.579063017
0 0 0.548519863
0 0 0.504683798
0 0 0.443064487
0 0 0.360088215
0 0 0.255080509
0 0 0.142219723
0 0 0.057672420
0 0 0.015279377
0 0 0.000270975
0 0 -0.002687586
0 0 -0.002056182
0 0 -0.001053789
0 0 -0.000407193
0 0 -0.000107225
0 0 0.000001540
0 0 0.000024758
0 0 0.000020626
0 0 0.000012012
0 0 0.000005675
0 0 0.000001673
0 0 0.000000000
0 0 0.000000000
0 0 0.192484216
0 0 0.391659183
0 0 0.580312347
0 0 0.705525785
0 0 0.770957198
0 0 0.794200165
0 0 0.796164054
0 0 0.788774674
0 0 0.776502754
0 0 0.759694239
0 0 0.736178526
0 0 0.702642333
0 0 0.654678421
0 0 0.587264931
0 0 0.496051246
0 0 0.380859379
0 0 0.255349649
0 0 0.147059134
0 0 0.070273985
0 0 0.026011033
0 0 0.005751942
0 0 -0.001108844
0 0 -0.002192722
0 0 -0.001564678
0 0 -0.000805886
0 0 -0.000323810
0 0 -0.000092459
0 0 -0.000007627
0 0 0.000012740
0 0 0.000012336
0 0 0.000006560
0 0 0.000000000
0 0 0.000000000
0 0 0.174087996
0 0 0.414492483
0 0 0.569710913
0 0 0.711334861
0 0 0.803736551
0 0 0.859980176
0 0 0.883297527
0 0 0.886881027
0 0 0.878386870
0 0 0.862041928
0 0 0.837956902
0 0 0.803664797
0 0 0.754920050
0 0 0.686246678
0 0 0.592484344
0 0 0.471531885
0 0 0.336526285
0 0 0.217989368
0 0 0.128555111
0 0 0.066649073
0 0 0.028832263
0 0 0.009104948
0 0 0.000811039
0 0 -0.001577729
0 0 -0.001596580
0 0 -0.001016788
0 0 -0.000508911
0 0 -0.000207791
0 0 -0.000067810
0 0 -0.000011841
0 0 0.000006152
0 0 0.000000000
0 0 0.000000000
0 0 0.180735240
0 0 0.398624113
0 0 0.570892086
0 0 0.700657806
0 0 0.795696690
0 0 0.861515706
0 0 0.901799778
0 0 0.919840893
0 0 0.920847995
0 0 0.909041252
0 0 0.886387746
0 0 0.852085923
0 0 0.802914556
0 0 0.733967641
0 0 0.640382838
0 0 0.520426215
0 0 0.385980306
0 0 0.265123354
0 0 0.171287960
0 0 0.103513828
0 0 0.057087289
0 0 0.027549142
0 0 0.010725992
0 0 0.002536177
0 0 -0.000587383
0 0 -0.001251329
0 0 -0.001012461
0 0 -0.000615479
0 0 -0.000315863
0 0 -0.000137162
0 0 -0.000035083
0 0 0.000000000
0 0 0.000000000
0 0 0.178559916
0 0 0.405570003
0 0 0.565637073
0 0 0.700582407
0 0 0.790783989
0 0 0.855921553
0 0 0.898396356
0 0 0.923787873
0 0 0.933037528
0 0 0.928054366
0 0 0.909651035
0 0 0.877436601
0 0 0.829008932
0 0 0.760136246
0 0 0.666271223
0 0 0.545710153
0 0 0.411058453
0 0 0.290818958
0 0 0.196892583
0 0 0.127737327
0 0 0.078998483
0 0 0.045669508
0 0 0.023911416
0 0 0.010730710
0 0 0.003613184
0 0 0.000375057
0 0 -0.000710642
0 0 -0.000817532
0 0 -0.000606077
0 0 -0.000366666
0 0 -0.000160876
0 0 0.000000000
0 0 0.000000000
0 0 0.179134273
0 0 0.402664956
0 0 0.568326923
0 0 0.698093788
0 0 0.789486725
0 0 0.852283179
0 0 0.893682870
0 0 0.918846065
0 0 0.930643047
0 0 0.929597813
0 0 0.915232105
0 0 0.886049693
0 0 0.839441857
0 0 0.771480693
0 0 0.678127202
0 0 0.558037350
0 0 0.423589764
0 0 0.303334619
0 0 0.209823299
0 0 0.141101212
0 0 0.092213960
0 0 0.058185984
0 0 0.034936073
0 0 0.019483357
0 0 0.009713181
0 0 0.004024088
0 0 0.001097179
0 0 -0.000147940
0 0 -0.000506789
0 0 -0.000484011
0 0 -0.000325860
0 0 0.000000000
0 0 0.000000000
0 0 0.179151866
0 0 0.403841868
0 0 0.567094636
0 0 0.699598001
0 0 0.788972765
0 0 0.851900371
0 0 0.892012452
0 0 0.916320178
0 0 0.927410712
0 0 0.926966109
0 0 0.914244018
0 0 0.887228981
0 0 0.842582312
0 0 0.775985612
0 0 0.683318022
0 0 0.563453860
0 0 0.429218011
0 0 0.309217070
0 0 0.215807400
0 0 0.147338582
0 0 0.098864464
0 0 0.065073856
0 0 0.041792080
0 0 0.025893418
0 0 0.015207423
0 0 0.008248368
0 0 0.003967043
0 0 0.001554887
0 0 0.000343922
0 0 -0.000148881
0 0 -0.000331394
0 0 0.000000000
0 0 0.000000000
0 0 0.179029457
0 0 0.403533422
0 0 0.567747957
0 0 0.698936789
0 0 0.789563396
0 0 0.851789128
0 0 0.891880834
0 0 0.915473459
0 0 0.925965039
0 0 0.924862192
0 0 0.912021601
0 0 0.885491227
0 0 0.841821939
0 0 0.776351039
0 0 0.684685820
0 0 0.565510789
0 0 0.431571173
0 0 0.311695628
0 0 0.218448759
0 0 0.150087283
0 0 0.101759535
0 0 0.068240560
0 0 0.045222348
0 0 0.029494149
0 0 0.018785359
0 0 0.011551719
0 0 0.006749378
0 0 0.003683168
0 0 0.001799270
0 0 0.000742899
0 0 0.000040665
0 0 0.000000000
0 0 0.000000000
0 0 0.179132497
0 0 0.403568320
0 0 0.567539535
0 0 0.699367372
0 0 0.789350424
0 0 0.852114907
0 0 0.891992998
0 0 0.915606322
0 0 0.925750458
0 0 0.924299140
0 0 0.911015939
0 0 0.884233316
0 0 0.840597935
0 0 0.775464309
0 0 0.684298370
0 0 0.565657076
0 0 0.432190565
0 0 0.312601150
0 0 0.219470297
0 0 0.151206232
0 0 0.102956145
0 0 0.069520662
0 0 0.046657895
0 0 0.031122730
0 0 0.020598177
0 0 0.013480439
0 0 0.008675412
0 0 0.005467600
0 0 0.003324767
0 0 0.001902576
0 0 0.000797901
0 0 0.000000000
0 0 0.000000000
0 0 0.179066636
0 0 0.403603605
0 0 0.567586594
0 0 0.699190112
0 0 0.789543381
0 0 0.852028130
0 0 0.892133184
0 0 0.915687342
0 0 0.925870380
0 0 0.924263916
0 0 0.910789101
0 0 0.883733274
0 0 0.839879878
0 0 0.774661203
0 0 0.683593028
0 0 0.565172448
0 0 0.431970567
0 0 0.312654104
0 0 0.219736527
0 0 0.151578583
0 0 0.103393261
0 0 0.070006957
0 0 0.047189835
0 0 0.031736718
0 0 0.021332978
0 0 0.014356826
0 0 0.009692444
0 0 0.006569086
0 0 0.004478609
0 0 0.002915400
0 0 0.001704662
0 0 0.000000000
0 0 0.000000000
0 0 0.179101243
0 0 0.403562027
0 0 0.567590480
0 0 0.699252977
0 0 0.789448075
0 0 0.852120222
0 0 0.892116272
0 0 0.915773994
0 0 0.925950110
0 0 0.924388485
0 0 0.910863544
0 0 0.883720847
0 0 0.839714638
0 0 0.774336156
0 0 0.683150357
0 0 0.564711334
0 0 0.431585522
0 0 0.312390420
0 0 0.219614790
0 0 0.151591942
0 0 0.103490657
0 0 0.070151963
0 0 0.047367009
0 0 0.031937854
0 0 0.021578311
0 0 0.014667121
0 0 0.010112061
0 0 0.007084469
0 0 0.005151425
0 0 0.003563930
0 0 0.002482613
0 0 0.000000000
0 0 0.000000000
0 0 0.179085176
0 0 0.403589119
0 0 0.567571606
0 0 0.699232594
0 0 0.789485466
0 0 0.852064645
0 0 0.892144389
0 0 0.915759163
0 0 0.925983055
0 0 0.924424554
0 0 0.910932605
0 0 0.883782128
0 0 0.839747401
0 0 0.774300846
0 0 0.683028009
0 0 0.564501646
0 0 0.431325768
0 0 0.312137889
0 0 0.219408424
0 0 0.151451949
0 0 0.103426642
0 0 0.070145285
0 0 0.047396235
0 0 0.031987333
0 0 0.021645330
0 0 0.014750120
0 0 0.010246686
0 0 0.007262448
0 0 0.005461874
0 0 0.003876303
0 0 0.002994979
0 0 0.000000000
0 0 0.000000000
0 0 0.179092458
0 0 0.403575355
0 0 0.567587225
0 0 0.699232980
0 0 0.789469130
0 0 0.852088223
0 0 0.892120619
0 0 0.915770940
0 0 0.925978021
0 0 0.924443679
0 0 0.910957339
0 0 0.883828560
0 0 0.839797734
0 0 0.774343028
0 0 0.683039680
0 0 0.564469300
0 0 0.431241290
0 0 0.312009322
0 0 0.219263020
0 0 0.151316239
0 0 0.103317364
0 0 0.070073453
0 0 0.047360269
0 0 0.031974398
0 0 0.021650468
0 0 0.014760067
0 0 0.010278300
0 0 0.007301005
0 0 0.005575028
0 0 0.003986004
0 0 0.003261706
0 0 0.000000000
0 0 0.000000000
0 0 0.179090195
0 0 0.403583210
0 0 0.567579391
0 0 0.699238421
0 0 0.789473362
0 0 0.852075807
0 0 0.892130231
0 0 0.915757574
0 0 0.925978365
0 0 0.924435760
0 0 0.910960779
0 0 0.883836657
0 0 0.839820650
0 0 0.774374801
0 0 0.683074155
0 0 0.564492814
0 0 0.431243964
0 0 0.311983985
0 0 0.219208334
0 0 0.151242096
0 0 0.103238965
0 0 0.070001683
0 0 0.047304981
0 0 0.031936940
0 0 0.021629806
0 0 0.014746926
0 0 0.010277548
0 0 0.007298500
0 0 0.005605137
0 0 0.004009023
0 0 0.003371192
0 0 0.000000000
0 0 0.000000000
0 0 0.179089788
0 0 0.403580867
0 0 0.567585957
0 0 0.699237465
0 0 0.789476972
0 0 0.852082733
0 0 0.892125361
0 0 0.915763155
0 0 0.925973067
0 0 0.924435549
0 0 0.910956056
0 0 0.883836548
0 0 0.839822261
0 0 0.774384198
0 0 0.683090634
0 0 0.564514768
0 0 0.431264547
0 0 0.311996219
0 0 0.219206655
0 0 0.151222844
0 0 0.103204730
0 0 0.069959480
0 0 0.047262496
0 0 0.031899361
0 0 0.021602242
0 0 0.014726357
0 0 0.010266468
0 0 0.007287727
0 0 0.005607509
0 0 0.004006625
0 0 0.003405198
0 0 0.000000000
0 0 0.000000000
0 0 0.179084470
0 0 0.403576731
0 0 0.567581362
0 0 0.699240542
0 0 0.789478573
0 0 0.852085883
0 0 0.892132550
0 0 0.915763420
0 0 0.925977500
0 0 0.924434367
0 0 0.910956051
0 0 0.883833814
0 0 0.839821589
0 0 0.774383923
0 0 0.683094083
0 0 0.564522669
0 0 0.431276757
0 0 0.312010412
0 0 0.219219451
0 0 0.151230620
0 0 0.103203564
0 0 0.069948198
0 0 0.047243312
0 0 0.031876214
0 0 0.021579173
0 0 0.014706179
0 0 0.010251172
0 0 0.007275147
0 0 0.005600603
0 0 0.003999471
0 0 0.003410207
0 0 0.000000000
0 0 0.000000000
0 0 0.179073980
0 0 0.403558809
0 0 0.567566881
0 0 0.699229653
0 0 0.789477027
0 0 0.852087771
0 0 0.892135805
0 0 0.915769609
0 0 0.925979459
0 0 0.924437125
0 0 0.910955761
0 0 0.883832925
0 0 0.839818530
0 0 0.774382253
0 0 0.683092396
0 0 0.564522507
0 0 0.431279691
0 0 0.312015591
0 0 0.219225157
0 0 0.151235515
0 0 0.103207471
0 0 0.069949286
0 0 0.047240930
0 0 0.031869249
0 0 0.021569753
0 0 0.014694502
0 0 0.010240522
0 0 0.007264878
0 0 0.005592894
0 0 0.003992505
0 0 0.003407433
0 0 0.000000000
0 0 0.000000000
0 0 0.179064760
0 0 0.403528705
0 0 0.567526769
0 0 0.699190271
0 0 0.789447344
0 0 0.852073875
0 0 0.892135227
0 0 0.915776773
0 0 0.925992179
0 0 0.924448163
0 0 0.910965025
0 0 0.883839521
0 0 0.839822619
0 0 0.774382183
0 0 0.683092664
0 0 0.564522407
0 0 0.431279047
0 0 0.312018637
0 0 0.219233267
0 0 0.151246330
0 0 0.103216772
0 0 0.069955871
0 0 0.047242985
0 0 0.031868310
0 0 0.021564631
0 0 0.014688161
0 0 0.010231772
0 0 0.007256910
0 0 0.005584453
0 0 0.003986039
0 0 0.003401428
0 0 0.000000000
0 0 0.000000000
0 0 0.179076851
0 0 0.403510095
0 0 0.567480125
0 0 0.699119639
0 0 0.789369979
0 0 0.852003951
0 0 0.892084021
0 0 0.915746840
0 0 0.925978962
0 0 0.924448008
0 0 0.910970238
0 0 0.883844286
0 0 0.839827716
0 0 0.774387319
0 0 0.683092468
0 0 0.564521865
0 0 0.431278635
0 0 0.312011595
0 0 0.219221151
0 0 0.151235429
0 0 0.103212658
0 0 0.069957448
0 0 0.047249769
0 0 0.031874856
0 0 0.021571773
0 0 0.014691047
0 0 0.010234180
0 0 0.007255076
0 0 0.005582529
0 0 0.003982263
0 0 0.003398042
0 0 0.000000000
0 0 0.000000000
0 0 0.179147752
0 0 0.403573985
0 0 0.567486784
0 0 0.699063186
0 0 0.789265087
0 0 0.851880736
0 0 0.891970044
0 0 0.915661380
0 0 0.925928555
0 0 0.924426333
0 0 0.910970581
0 0 0.883858113
0 0 0.839839578
0 0 0.774397105
0 0 0.683105053
0 0 0.564527554
0 0 0.431283890
0 0 0.312030011
0 0 0.219246191
0 0 0.151255484
0 0 0.103220812
0 0 0.069957290
0 0 0.047242762
0 0 0.031868914
0 0 0.021563654
0 0 0.014687649
0 0 0.010227681
0 0 0.007253216
0 0 0.005576694
0 0 0.003980041
0 0 0.003392515
0 0 0.000000000
0 0 0.000000000
0 0 0.179289770
0 0 0.403818477
0 0 0.567719229
0 0 0.699198614
0 0 0.789255813
0 0 0.851739152
0 0 0.891744171
0 0 0.915412857
0 0 0.925708021
0 0 0.924263419
0 0 0.910864537
0 0 0.883800226
0 0 0.839825654
0 0 0.774396529
0 0 0.683103228
0 0 0.564534877
0 0 0.431277550
0 0 0.311993040
0 0 0.219201963
0 0 0.151226354
0 0 0.103214898
0 0 0.069965918
0 0 0.047261536
0 0 0.031884991
0 0 0.021582306
0 0 0.014697170
0 0 0.010241022
0 0 0.007256108
0 0 0.005584646
0 0 0.003979581
0 0 0.003395077
0 0 0.000000000
0 0 0.000000000
0 0 0.179491134
0 0 0.404243876
0 0 0.568267973
0 0 0.699781235
0 0 0.789729500
0 0 0.852006063
0 0 0.891772175
0 0 0.915242698
0 0 0.925424663
0 0 0.923957435
0 0 0.910609788
0 0 0.883615093
0 0 0.839697705
0 0 0.774342855
0 0 0.683092465
0 0 0.564530302
0 0 0.431318925
0 0 0.312084928
0 0 0.219287031
0 0 0.151271043
0 0 0.103216346
0 0 0.069944515
0 0 0.047227479
0 0 0.031857945
0 0 0.021552923
0 0 0.014683871
0 0 0.010220785
0 0 0.007254302
0 0 0.005570522
0 0 0.003982068
0 0 0.003387236
0 0 0.000000000
0 0 0.000000000
0 0 0.179672326
0 0 0.404822030
0 0 0.569169075
0 0 0.700902026
0 0 0.790900336
0 0 0.853016291
0 0 0.892440282
0 0 0.915484047
0 0 0.925273748
0 0 0.923538204
0 0 0.910073211
0 0 0.883120918
0 0 0.839319191
0 0 0.774044347
0 0 0.682904408
0 0 0.564423412
0 0 0.431160602
0 0 0.311881587
0 0 0.219139720
0 0 0.151214752
0 0 0.103236021
0 0 0.069998436
0 0 0.047295727
0 0 0.031911357
0 0 0.021606716
0 0 0.014709659
0 0 0.010257410
0 0 0.007258203
0 0 0.005597907
0 0 0.003975641
0 0 0.003401871
0 0 0.000000000
0 0 0.000000000
0 0 0.179782668
0 0 0.405183759
0 0 0.570065874
0 0 0.702476911
0 0 0.793112009
0 0 0.855631902
0 0 0.895051831
0 0 0.917653121
0 0 0.926699279
0 0 0.924155216
0 0 0.910022563
0 0 0.882616757
0 0 0.838667737
0 0 0.773497901
0 0 0.682449664
0 0 0.564157430
0 0 0.431226706
0 0 0.312099040
0 0 0.219270536
0 0 0.151206536
0 0 0.103127710
0 0 0.069860923
0 0 0.047159176
0 0 0.031812555
0 0 0.021517276
0 0 0.014668711
0 0 0.010199399
0 0 0.007255673
0 0 0.005550595
0 0 0.003994381
0 0 0.003373804
0 0 0.000000000
0 0 0.000000000
0 0 0.179804476
0 0 0.405603857
0 0 0.570645654
0 0 0.703503449
0 0 0.794924057
0 0 0.858507475
0 0 0.898955617
0 0 0.922124398
0 0 0.930970927
0 0 0.927503813
0 0 0.912092968
0 0 0.883494734
0 0 0.838558233
0 0 0.772794885
0 0 0.681666809
0 0 0.563227269
0 0 0.430059964
0 0 0.311118073
0 0 0.218756273
0 0 0.151081319
0 0 0.103225601
0 0 0.070027427
0 0 0.047334828
0 0 0.031944749
0 0 0.021645427
0 0 0.014731282
0 0 0.010294390
0 0 0.007260604
0 0 0.005636092
0 0 0.003953438
0 0 0.003431610
0 0 0.000000000
0 0 0.000000000
0 0 0.178951945
0 0 0.405003399
0 0 0.570894598
0 0 0.704650426
0 0 0.797085302
0 0 0.862041211
0 0 0.904296555
0 0 0.929496952
0 0 0.939937809
0 0 0.936867274
0 0 0.920335063
0 0 0.889566411
0 0 0.842405693
0 0 0.774679451
0 0 0.682142209
0 0 0.563614926
0 0 0.430789570
0 0 0.311512520
0 0 0.218553500
0 0 0.150513023
0 0 0.102541123
0 0 0.069404294
0 0 0.046810396
0 0 0.031559904
0 0 0.021330474
0 0 0.014561498
0 0 0.010108402
0 0 0.007239157
0 0 0.005485495
0 0 0.004039101
0 0 0.003316015
0 0 0.000000000
0 0 0.000000000
0 0 0.176617646
0 0 0.402660735
0 0 0.568046857
0 0 0.702254414
0 0 0.795354977
0 0 0.861663029
0 0 0.906111015
0 0 0.934634306
0 0 0.949386081
0 0 0.950727781
0 0 0.937108277
0 0 0.906362571
0 0 0.856341776
0 0 0.784775765
0 0 0.688164615
0 0 0.565199963
0 0 0.429835978
0 0 0.310649067
0 0 0.218539199
0 0 0.151064722
0 0 0.103298573
0 0 0.070103326
0 0 0.047382274
0 0 0.031942949
0 0 0.021623337
0 0 0.014679119
0 0 0.010295067
0 0 0.007213532
0 0 0.005705422
0 0 0.003859158
0 0 0.003545970
0 0 0.000000000
0 0 0.000000000
0 0 0.166502825
0 0 0.392767457
0 0 0.561239839
0 0 0.698424769
0 0 0.793766111
0 0 0.861485067
0 0 0.907309714
0 0 0.938058853
0 0 0.956822062
0 0 0.964554017
0 0 0.959098672
0 0 0.935867349
0 0 0.889289835
0 0 0.815358784
0 0 0.714276949
0 0 0.587424297
0 0 0.445993693
0 0 0.319479269
0 0 0.222128853
0 0 0.151856594
0 0 0.102894782
0 0 0.069373264
0 0 0.046629639
0 0 0.031324451
0 0 0.021044969
0 0 0.014288100
0 0 0.009805119
0 0 0.007090083
0 0 0.005244038
0 0 0.004136180
0 0 0.003063981
0 0 0.000000000
0 0 0.000000000
0 0 0.146599011
0 0 0.361537388
0 0 0.528211243
0 0 0.669755774
0 0 0.770973731
0 0 0.844717582
0 0 0.895396287
0 0 0.930409024
0 0 0.953797537
0 0 0.968190734
0 0 0.973265321
0 0 0.965065763
0 0 0.935089704
0 0 0.871728131
0 0 0.766628819
0 0 0.627029657
0 0 0.477471822
0 0 0.346608117
0 0 0.244134924
0 0 0.168540939
0 0 0.114916756
0 0 0.077743570
0 0 0.052396792
0 0 0.035193695
0 0 0.023690852
0 0 0.015858728
0 0 0.010957199
0 0 0.007360698
0 0 0.005959438
0 0 0.003539582
0 0 0.004024742
0 0 0.000000000
0 0 0.000000000
0 0 0.098182560
0 0 0.303797701
0 0 0.472594266
0 0 0.622930008
0 0 0.735221223
0 0 0.818431632
0 0 0.877128352
0 0 0.917839162
0 0 0.945652735
0 0 0.964261006
0 0 0.975698080
0 0 0.979605011
0 0 0.971804205
0 0 0.941954745
0 0 0.872815352
0 0 0.746359507
0 0 0.578086303
0 0 0.418934782
0 0 0.293471992
0 0 0.201142714
0 0 0.136135550
0 0 0.091389077
0 0 0.061079562
0 0 0.040762027
0 0 0.027162602
0 0 0.018192201
0 0 0.012104447
0 0 0.008398365
0 0 0.005586880
0 0 0.004647332
0 0 0.002247058
0 0 0.000000000
0 0 0.000000000
0 0 0.016983733
0 0 0.146399726
0 0 0.306018453
0 0 0.464742653
0 0 0.603997073
0 0 0.715277506
0 0 0.800201783
0 0 0.862218595
0 0 0.906411748
0 0 0.937166365
0 0 0.957955530
0 0 0.970600046
0 0 0.974733715
0 0 0.966086023
0 0 0.935042199
0 0 0.864234462
0 0 0.739719300
0 0 0.585810713
0 0 0.439006968
0 0 0.316659787
0 0 0.222409509
0 0 0.153375940
0 0 0.104434826
0 0 0.070503151
0 0 0.047377322
0 0 0.031676955
0 0 0.021313796
0 0 0.014074041
0 0 0.010018745
0 0 0.005932113
0 0 0.006000989
0 0 0.000000000
VECTORS u float
0 0 -0.000000000
0 0 0.000000000
0 0 -0.000000000
0 0 0.000000000
0 0 0.000000000
0 0 0.000000000
0 0 0.000000000
0 0 0.000000000
0 0 -0.000000000
0 0 0.000000000
0 0 -0.000000000
0 0 -0.000000000
0 0 0.000000000
0 0 -0.000000000
0 0 0.000000000
0 0 -0.000000000
0 0 0.000000000
0 0 -0.000000000
0 0 0.000000000
0 0 -0.000000000
0 0 0.000000000
0 0 -0.000000000
0 0 0.000000000
0 0 -0.000000000
0 0 0.000000000
0 0 -0.000000000
0 0 0.000000000
0 0 -0.000000000
0 0 0.000000000
0 0 -0.000000000
0 0 0.000000000
0 0 -0.000000000
0 0 0.000000000
0 0 0.000000000
0 0 12.836432804
0 0 8.697472066
0 0 10.668908403
0 0 9.280036304
0 0 9.717761320
0 0 9.334017247
0 0 9.388060621
0 0 9.189210325
0 0 9.039443397
0 0 8.745530658
0 0 8.349199237
0 0 7.757382497
0 0 6.925800831
0 0 5.746387030
0 0 4.172580467
0 0 1.995159173
0 0 -0.050234337
0 0 -0.209066231
0 0 -0.109450947
0 0 -0.035266372
0 0 -0.006361076
0 0 0.002143218
0 0 0.003405573
0 0 0.002037584
0 0 0.001142983
0 0 0.000357561
0 0 0.000130514
0 0 -0.000008943
0 0 -0.000001932
0 0 -0.000010829
0 0 0.000002005
0 0 -0.000000000
0 0 -0.000000000
0 0 3.992777468
0 0 6.200965849
0 0 4.696748431
0 0 4.515389701
0 0 3.838304143
0 0 3.801810944
0 0 3.633856082
0 0 3.629474120
0 0 3.562608595
0 0 3.507145216
0 0 3.397932747
0 0 3.233177698
0 0 2.974204632
0 0 2.565401609
0 0 1.957654783
0 0 0.956498327
0 0 -0.355175237
0 0 -0.674905318
0 0 -0.413118585
0 0 -0.201807506
0 0 -0.069392656
0 0 -0.018192396
0 0 0.001072086
0 0 0.004136860
0 0 0.003379576
0 0 0.001817495
0 0 0.000758544
0 0 0.000235371
0 0 0.000031614
0 0 -0.000006848
0 0 -0.000006490
0 0 0.000000000
0 0 0.000000000
0 0 8.985198695
0 0 6.235750924
0 0 7.038765132
0 0 5.054289359
0 0 4.753666598
0 0 4.010037146
0 0 3.894927534
0 0 3.668079971
0 0 3.583490190
0 0 3.416739946
0 0 3.218604795
0 0 2.906306047
0 0 2.460810732
0 0 1.803149751
0 0 0.900060938
0 0 -0.398770653
0 0 -1.634161931
0 0 -1.470003333
0 0 -0.980394143
0 0 -0.531516257
0 0 -0.247244596
0 0 -0.093440219
0 0 -0.026100134
0 0 -0.001331924
0 0 0.004537201
0 0 0.004093506
0 0 0.002410613
0 0 0.001053509
0 0 0.000351404
0 0 0.000046587
0 0 -0.000006892
0 0 0.000000000
0 0 0.000000000
0 0 6.241219922
0 0 6.237520316
0 0 5.126150869
0 0 3.907324097
0 0 2.753393734
0 0 2.082812970
0 0 1.595555696
0 0 1.372699728
0 0 1.211951117
0 0 1.108748839
0 0 0.978691626
0 0 0.801587671
0 0 0.533810790
0 0 0.119135601
0 0 -0.485821278
0 0 -1.474261131
0 0 -2.559379739
0 0 -2.335141804
0 0 -1.623372492