# vtk DataFile Version 2.0
Hex test
ASCII
DATASET UNSTRUCTURED_GRID
POINTS 1225 float
0 0.000000000 0.000000000
0.014860495 0.000000000 0.000000000
0.047098238 0.000000000 0.000000000
0.089447611 0.000000000 0.000000000
0.134643000 0.000000000 0.000000000
0.000000000 0.014860495 0.000000000
0.014860495 0.014860495 0.000000000
0.047098238 0.014860495 0.000000000
0.089447611 0.014860495 0.000000000
0.134643000 0.014860495 0.000000000
0.000000000 0.047098238 0.000000000
0.014860495 0.047098238 0.000000000
0.047098238 0.047098238 0.000000000
0.089447611 0.047098238 0.000000000
0.134643000 0.047098238 0.000000000
0.000000000 0.089447611 0.000000000
0.014860495 0.089447611 0.000000000
0.047098238 0.089447611 0.000000000
0.089447611 0.089447611 0.000000000
0.134643000 0.089447611 0.000000000
0.000000000 0.134643000 0.000000000
0.014860495 0.134643000 0.000000000
0.047098238 0.134643000 0.000000000
0.089447611 0.134643000 0.000000000
0.134643000 0.134643000 0.000000000
0.134643000 0.000000000 0.000000000
0.176813453 0.000000000 0.000000000
0.215669375 0.000000000 0.000000000
0.252315609 0.000000000 0.000000000
0.287857000 0.000000000 0.000000000
0.134643000 0.014860495 0.000000000
0.176813453 0.014860495 0.000000000
0.215669375 0.014860495 0.000000000
0.252315609 0.014860495 0.000000000
0.287857000 0.014860495 0.000000000
0.134643000 0.047098238 0.000000000
0.176813453 0.047098238 0.000000000
0.215669375 0.047098238 0.000000000
0.252315609 0.047098238 0.000000000
0.287857000 0.047098238 0.000000000
0.134643000 0.089447611 0.000000000
0.176813453 0.089447611 0.000000000
0.215669375 0.089447611 0.000000000
0.252315609 0.089447611 0.000000000
0.287857000 0.089447611 0.000000000
0.134643000 0.134643000 0.000000000
0.176813453 0.134643000 0.000000000
0.215669375 0.134643000 0.000000000
0.252315609 0.134643000 0.000000000
0.287857000 0.134643000 0.000000000
0.287857000 0.000000000 0.000000000
0.323214250 0.000000000 0.000000000
0.358571500 0.000000000 0.000000000
0.393928750 0.000000000 0.000000000
0.429286000 0.000000000 0.000000000
0.287857000 0.014860495 0.000000000
0.323214250 0.014860495 0.000000000
0.358571500 0.014860495 0.000000000
0.393928750 0.014860495 0.000000000
0.429286000 0.014860495 0.000000000
0.287857000 0.047098238 0.000000000
0.323214250 0.047098238 0.000000000
0.358571500 0.047098238 0.000000000
0.393928750 0.047098238 0.000000000
0.429286000 0.047098238 0.000000000
0.287857000 0.089447611 0.000000000
0.323214250 0.089447611 0.000000000
0.358571500 0.089447611 0.000000000
0.393928750 0.089447611 0.000000000
0.429286000 0.089447611 0.000000000
0.287857000 0.134643000 0.000000000
0.323214250 0.134643000 0.000000000
0.358571500 0.134643000 0.000000000
0.393928750 0.134643000 0.000000000
0.429286000 0.134643000 0.000000000
0.429286000 0.000000000 0.000000000
0.464643094 0.000000000 0.000000000
0.500000000 0.000000000 0.000000000
0.535356906 0.000000000 0.000000000
0.570714000 0.000000000 0.000000000
0.429286000 0.014860495 0.000000000
0.464643094 0.014860495 0.000000000
0.500000000 0.014860495 0.000000000
0.535356906 0.014860495 0.000000000
0.570714000 0.014860495 0.000000000
0.429286000 0.047098238 0.000000000
0.464643094 0.047098238 0.000000000
0.500000000 0.047098238 0.000000000
0.535356906 0.047098238 0.000000000
0.570714000 0.047098238 0.000000000
0.429286000 0.089447611 0.000000000
0.464643094 0.089447611 0.000000000
0.500000000 0.089447611 0.000000000
0.535356906 0.089447611 0.000000000
0.570714000 0.089447611 0.000000000
0.429286000 0.134643000 0.000000000
0.464643094 0.134643000 0.000000000
0.500000000 0.134643000 0.000000000
0.535356906 0.134643000 0.000000000
0.570714000 0.134643000 0.000000000
0.570714000 0.000000000 0.000000000
0.606071250 0.000000000 0.000000000
0.641428500 0.000000000 0.000000000
0.676785750 0.000000000 0.000000000
0.712143000 0.000000000 0.000000000
0.570714000 0.014860495 0.000000000
0.606071250 0.014860495 0.000000000
0.641428500 0.014860495 0.000000000
0.676785750 0.014860495 0.000000000
0.712143000 0.014860495 0.000000000
0.570714000 0.047098238 0.000000000
0.606071250 0.047098238 0.000000000
0.641428500 0.047098238 0.000000000
0.676785750 0.047098238 0.000000000
0.712143000 0.047098238 0.000000000
0.570714000 0.089447611 0.000000000
0.606071250 0.089447611 0.000000000
0.641428500 0.089447611 0.000000000
0.676785750 0.089447611 0.000000000
0.712143000 0.089447611 0.000000000
0.570714000 0.134643000 0.000000000
0.606071250 0.134643000 0.000000000
0.641428500 0.134643000 0.000000000
0.676785750 0.134643000 0.000000000
0.712143000 0.134643000 0.000000000
0.712143000 0.000000000 0.000000000
0.747684391 0.000000000 0.000000000
0.784330625 0.000000000 0.000000000
0.823186547 0.000000000 0.000000000
0.865357000 0.000000000 0.000000000
0.712143000 0.014860495 0.000000000
0.747684391 0.014860495 0.000000000
0.784330625 0.014860495 0.000000000
0.823186547 0.014860495 0.000000000
0.865357000 0.014860495 0.000000000
0.712143000 0.047098238 0.000000000
0.747684391 0.047098238 0.000000000
0.784330625 0.047098238 0.000000000
0.823186547 0.047098238 0.000000000
0.865357000 0.047098238 0.000000000
0.712143000 0.089447611 0.000000000
0.747684391 0.089447611 0.000000000
0.784330625 0.089447611 0.000000000
0.823186547 0.089447611 0.000000000
0.865357000 0.089447611 0.000000000
0.712143000 0.134643000 0.000000000
0.747684391 0.134643000 0.000000000
0.784330625 0.134643000 0.000000000
0.823186547 0.134643000 0.000000000
0.865357000 0.134643000 0.000000000
0.865357000 0.000000000 0.000000000
0.910552516 0.000000000 0.000000000
0.952901875 0.000000000 0.000000000
0.985139547 0.000000000 0.000000000
1.000000000 0.000000000 0.000000000
0.865357000 0.014860495 0.000000000
0.910552516 0.014860495 0.000000000
0.952901875 0.014860495 0.000000000
0.985139547 0.014860495 0.000000000
1.000000000 0.014860495 0.000000000
0.865357000 0.047098238 0.000000000
0.910552516 0.047098238 0.000000000
0.952901875 0.047098238 0.000000000
0.985139547 0.047098238 0.000000000
1.000000000 0.047098238 0.000000000
0.865357000 0.089447611 0.000000000
0.910552516 0.089447611 0.000000000
0.952901875 0.089447611 0.000000000
0.985139547 0.089447611 0.000000000
1.000000000 0.089447611 0.000000000
0.865357000 0.134643000 0.000000000
0.910552516 0.134643000 0.000000000
0.952901875 0.134643000 0.000000000
0.985139547 0.134643000 0.000000000
1.000000000 0.134643000 0.000000000
0.000000000 0.134643000 0.000000000
0.014860495 0.134643000 0.000000000
0.047098238 0.134643000 0.000000000
0.089447611 0.134643000 0.000000000
0.134643000 0.134643000 0.000000000
0.000000000 0.176813453 0.000000000
0.014860495 0.176813453 0.000000000
0.047098238 0.176813453 0.000000000
0.089447611 0.176813453 0.000000000
0.134643000 0.176813453 0.000000000
0.000000000 0.215669375 0.000000000
0.014860495 0.215669375 0.000000000
0.047098238 0.215669375 0.000000000
0.089447611 0.215669375 0.000000000
0.134643000 0.215669375 0.000000000
0.000000000 0.252315609 0.000000000
0.014860495 0.252315609 0.000000000
0.047098238 0.252315609 0.000000000
0.089447611 0.252315609 0.000000000
0.134643000 0.252315609 0.000000000
0.000000000 0.287857000 0.000000000
0.014860495 0.287857000 0.000000000
0.047098238 0.287857000 0.000000000
0.089447611 0.287857000 0.000000000
0.134643000 0.287857000 0.000000000
0.134643000 0.134643000 0.000000000
0.176813453 0.134643000 0.000000000
0.215669375 0.134643000 0.000000000
0.252315609 0.134643000 0.000000000
0.287857000 0.134643000 0.000000000
0.134643000 0.176813453 0.000000000
0.176813453 0.176813453 0.000000000
0.215669375 0.176813453 0.000000000
0.252315609 0.176813453 0.000000000
0.287857000 0.176813453 0.000000000
0.134643000 0.215669375 0.000000000
0.176813453 0.215669375 0.000000000
0.215669375 0.215669375 0.000000000
0.252315609 0.215669375 0.000000000
0.287857000 0.215669375 0.000000000
0.134643000 0.252315609 0.000000000
0.176813453 0.252315609 0.000000000
0.215669375 0.252315609 0.000000000
0.252315609 0.252315609 0.000000000
0.287857000 0.252315609 0.000000000
0.134643000 0.287857000 0.000000000
0.176813453 0.287857000 0.000000000
0.215669375 0.287857000 0.000000000
0.252315609 0.287857000 0.000000000
0.287857000 0.287857000 0.000000000
0.287857000 0.134643000 0.000000000
0.323214250 0.134643000 0.000000000
0.358571500 0.134643000 0.000000000
0.393928750 0.134643000 0.000000000
0.429286000 0.134643000 0.000000000
0.287857000 0.176813453 0.000000000
0.323214250 0.176813453 0.000000000
0.358571500 0.176813453 0.000000000
0.393928750 0.176813453 0.000000000
0.429286000 0.176813453 0.000000000
0.287857000 0.215669375 0.000000000
0.323214250 0.215669375 0.000000000
0.358571500 0.215669375 0.000000000
0.393928750 0.215669375 0.000000000
0.429286000 0.215669375 0.000000000
0.287857000 0.252315609 0.000000000
0.323214250 0.252315609 0.000000000
0.358571500 0.252315609 0.000000000
0.393928750 0.252315609 0.000000000
0.429286000 0.252315609 0.000000000
0.287857000 0.287857000 0.000000000
0.323214250 0.287857000 0.000000000
0.358571500 0.287857000 0.000000000
0.393928750 0.287857000 0.000000000
0.429286000 0.287857000 0.000000000
0.429286000 0.134643000 0.000000000
0.464643094 0.134643000 0.000000000
0.500000000 0.134643000 0.000000000
0.535356906 0.134643000 0.000000000
0.570714000 0.134643000 0.000000000
0.429286000 0.176813453 0.000000000
0.464643094 0.176813453 0.000000000
0.500000000 0.176813453 0.000000000
0.535356906 0.176813453 0.000000000
0.570714000 0.176813453 0.000000000
0.429286000 0.215669375 0.000000000
0.464643094 0.215669375 0.000000000
0.500000000 0.215669375 0.000000000
0.535356906 0.215669375 0.000000000
0.570714000 0.215669375 0.000000000
0.429286000 0.252315609 0.000000000
0.464643094 0.252315609 0.000000000
0.500000000 0.252315609 0.000000000
0.535356906 0.252315609 0.000000000
0.570714000 0.252315609 0.000000000
0.429286000 0.287857000 0.000000000
0.464643094 0.287857000 0.000000000
0.500000000 0.287857000 0.000000000
0.535356906 0.287857000 0.000000000
0.570714000 0.287857000 0.000000000
[...]
POINT_DATA 1225
VECTORS y float
3.000000000 0 0
3.000000000 0 0
3.000000000 0 0
3.000000000 0 0
3.000000000 0 0
3.000000000 0 0
3.000000008 0 0
3.000000040 0 0
3.000000111 0 0
3.000000234 0 0
3.000000000 0 0
3.000000040 0 0
3.000000150 0 0
3.000000316 0 0
3.000000525 0 0
3.000000000 0 0
3.000000111 0 0
3.000000316 0 0
3.000000427 0 0
3.000000253 0 0
3.000000000 0 0
3.000000234 0 0
3.000000525 0 0
3.000000253 0 0
2.999998800 0 0
3.000000000 0 0
3.000000047 0 0
3.000000375 0 0
3.000001266 0 0
3.000003000 0 0
3.000000234 0 0
3.000000131 0 0
3.000000302 0 0
3.000000934 0 0
3.000002212 0 0
3.000000525 0 0
3.000000212 0 0
3.000000131 0 0
3.000000304 0 0
3.000000750 0 0
3.000000253 0 0
3.000000035 0 0
2.999999932 0 0
2.999999917 0 0
2.999999963 0 0
2.999998800 0 0
2.999999344 0 0
2.999999775 0 0
3.000000319 0 0
3.000001200 0 0
3.000003000 0 0
2.995513588 0 0
2.964098953 0 0
2.878832748 0 0
2.712788624 0 0
3.000002212 0 0
2.995513242 0 0
2.964098763 0 0
2.878832435 0 0
2.712787919 0 0
3.000000750 0 0
2.995512586 0 0
2.964098393 0 0
2.878831846 0 0
2.712786621 0 0
2.999999963 0 0
2.995512194 0 0
2.964098145 0 0
2.878831505 0 0
2.712785960 0 0
3.000001200 0 0
2.995512637 0 0
2.964098321 0 0
2.878831935 0 0
2.712787165 0 0
2.712788624 0 0
2.451889706 0 0
2.133477536 0 0
1.807743774 0 0
1.524880081 0 0
2.712787919 0 0
2.451889299 0 0
2.133477337 0 0
1.807743595 0 0
1.524879636 0 0
2.712786621 0 0
2.451888537 0 0
2.133476911 0 0
1.807743142 0 0
1.524878627 0 0
2.712785960 0 0
2.451888112 0 0
2.133476555 0 0
1.807742681 0 0
1.524877882 0 0
2.712787165 0 0
2.451888718 0 0
2.133476565 0 0
1.807742478 0 0
1.524878228 0 0
1.524880081 0 0
1.324897312 0 0
1.207102759 0 0
1.160623643 0 0
1.174587186 0 0
1.524879636 0 0
1.324897171 0 0
1.207102802 0 0
1.160623708 0 0
1.174587067 0 0
1.524878627 0 0
1.324896627 0 0
1.207102489 0 0
1.160623349 0 0
1.174586343 0 0
1.524877882 0 0
1.324896147 0 0
1.207102131 0 0
1.160622956 0 0
1.174585741 0 0
1.524878228 0 0
1.324896192 0 0
1.207102038 0 0
1.160622918 0 0
1.174585986 0 0
1.174587186 0 0
1.235921901 0 0
1.322774178 0 0
1.411091577 0 0
1.476821658 0 0
1.174587067 0 0
1.235921920 0 0
1.322774178 0 0
1.411091546 0 0
1.476821728 0 0
1.174586343 0 0
1.235921496 0 0
1.322773803 0 0
1.411091160 0 0
1.476821459 0 0
1.174585741 0 0
1.235921005 0 0
1.322773288 0 0
1.411090550 0 0
1.476820750 0 0
1.174585986 0 0
1.235920820 0 0
1.322772867 0 0
1.411089851 0 0
1.476819498 0 0
1.476821658 0 0
1.502709640 0 0
1.498688432 0 0
1.481488392 0 0
1.467839878 0 0
1.476821728 0 0
1.502709704 0 0
1.498688563 0 0
1.481488558 0 0
1.467839946 0 0
1.476821459 0 0
1.502709349 0 0
1.498688185 0 0
1.481488188 0 0
1.467839581 0 0
1.476820750 0 0
1.502708755 0 0
1.498687601 0 0
1.481487587 0 0
1.467839012 0 0
1.476819498 0 0
1.502708100 0 0
1.498687113 0 0
1.481487060 0 0
1.467838464 0 0
3.000000000 0 0
3.000000234 0 0
3.000000525 0 0
3.000000253 0 0
2.999998800 0 0
3.000000047 0 0
3.000000131 0 0
3.000000212 0 0
3.000000035 0 0
2.999999344 0 0
3.000000375 0 0
3.000000302 0 0
3.000000131 0 0
2.999999932 0 0
2.999999775 0 0
3.000001266 0 0
3.000000934 0 0
3.000000304 0 0
2.999999917 0 0
3.000000319 0 0
3.000003000 0 0
3.000002212 0 0
3.000000750 0 0
2.999999963 0 0
3.000001200 0 0
2.999998800 0 0
2.999999344 0 0
2.999999775 0 0
3.000000319 0 0
3.000001200 0 0
2.999999344 0 0
2.999998668 0 0
2.999998419 0 0
2.999998576 0 0
2.999999119 0 0
2.999999775 0 0
2.999998419 0 0
2.999997787 0 0
2.999997718 0 0
2.999998050 0 0
3.000000319 0 0
2.999998576 0 0
2.999997718 0 0
2.999997495 0 0
2.999997656 0 0
3.000001200 0 0
2.999999119 0 0
2.999998050 0 0
2.999997656 0 0
2.999997600 0 0
3.000001200 0 0
2.995512637 0 0
2.964098321 0 0
2.878831935 0 0
2.712787165 0 0
2.999999119 0 0
2.995510855 0 0
2.964096649 0 0
2.878830192 0 0
2.712785179 0 0
2.999998050 0 0
2.995509975 0 0
2.964095838 0 0
2.878829341 0 0
2.712784183 0 0
2.999997656 0 0
2.995509737 0 0
2.964095659 0 0
2.878829125 0 0
2.712783841 0 0
2.999997600 0 0
2.995509885 0 0
2.964095877 0 0
2.878829284 0 0
2.712783814 0 0
2.712787165 0 0
2.451888718 0 0
2.133476565 0 0
1.807742478 0 0
1.524878228 0 0
2.712785179 0 0
2.451887081 0 0
2.133475354 0 0
1.807741558 0 0
1.524877251 0 0
2.712784183 0 0
2.451886306 0 0
2.133474838 0 0
1.807741215 0 0
1.524876872 0 0
2.712783841 0 0
2.451886116 0 0
2.133474803 0 0
1.807741264 0 0
1.524876857 0 0
2.712783814 0 0
2.451886235 0 0
2.133475039 0 0
1.807741519 0 0
1.524876970 0 0
1.524878228 0 0
1.324896192 0 0
1.207102038 0 0
1.160622918 0 0
1.174585986 0 0
1.524877251 0 0
1.324895421 0 0
1.207101394 0 0
1.160622293 0 0
1.174585241 0 0
1.524876872 0 0
1.324895177 0 0
1.207101231 0 0
1.160622144 0 0
1.174585023 0 0
1.524876857 0 0
1.324895259 0 0
1.207101366 0 0
1.160622282 0 0
1.174585107 0 0
1.524876970 0 0
1.324895466 0 0
1.207101617 0 0
1.160622520 0 0
1.174585269 0 0
1.174585986 0 0
1.235920820 0 0
1.322772867 0 0
1.411089851 0 0
1.476819498 0 0
1.174585241 0 0
1.235920160 0 0
1.322772242 0 0
1.411089416 0 0
1.476819613 0 0
1.174585023 0 0
1.235920013 0 0
1.322772133 0 0
1.411089425 0 0
1.476819934 0 0
1.174585107 0 0
1.235920177 0 0
1.322772349 0 0
1.411089732 0 0
1.476820433 0 0
1.174585269 0 0
1.235920451 0 0
1.322772700 0 0
1.411090187 0 0
1.476821084 0 0
1.476819498 0 0
1.502708100 0 0
1.498687113 0 0
1.481487060 0 0
1.467838464 0 0
1.476819613 0 0
1.502707770 0 0
1.498686684 0 0
1.481486694 0 0
1.467838139 0 0
1.476819934 0 0
1.502707772 0 0
1.498686639 0 0
1.481486702 0 0
1.467838132 0 0
1.476820433 0 0
1.502707947 0 0
1.498686850 0 0
1.481487063 0 0
1.467838508 0 0
1.476821084 0 0
1.502708138 0 0
1.498687193 0 0
1.481487757 0 0
1.467839338 0 0
3.000003000 0 0
3.000002212 0 0
3.000000750 0 0
2.999999963 0 0
3.000001200 0 0
3.000001312 0 0
3.000000965 0 0
3.000000307 0 0
2.999999912 0 0
3.000000356 0 0
3.000000750 0 0
3.000000550 0 0
3.000000159 0 0
2.999999896 0 0
3.000000075 0 0
3.000001312 0 0
3.000000965 0 0
3.000000307 0 0
2.999999912 0 0
3.000000356 0 0
3.000003000 0 0
3.000002212 0 0
3.000000750 0 0
2.999999963 0 0
3.000001200 0 0
3.000001200 0 0
2.999999119 0 0
2.999998050 0 0
2.999997656 0 0
2.999997600 0 0
3.000000356 0 0
2.999998573 0 0
2.999997691 0 0
2.999997453 0 0
2.999997600 0 0
3.000000075 0 0
2.999998391 0 0
2.999997572 0 0
2.999997386 0 0
2.999997600 0 0
3.000000356 0 0
2.999998573 0 0
2.999997691 0 0
2.999997453 0 0
2.999997600 0 0
3.000001200 0 0
2.999999119 0 0
2.999998050 0 0
2.999997656 0 0
2.999997600 0 0
2.999997600 0 0
2.995509885 0 0
2.964095877 0 0
2.878829284 0 0
2.712783814 0 0
2.999997600 0 0
2.995509695 0 0
2.964095625 0 0
2.878829099 0 0
2.712783824 0 0
2.999997600 0 0
2.995509632 0 0
2.964095540 0 0
2.878829034 0 0
2.712783820 0 0
2.999997600 0 0
2.995509695 0 0
2.964095623 0 0
2.878829092 0 0
2.712783808 0 0
2.999997600 0 0
2.995509884 0 0
2.964095874 0 0
2.878829276 0 0
2.712783795 0 0
2.712783814 0 0
2.451886235 0 0
2.133475039 0 0
1.807741519 0 0
1.524876970 0 0
2.712783824 0 0
2.451886146 0 0
2.133474889 0 0
1.807741398 0 0
1.524877021 0 0
2.712783820 0 0
2.451886102 0 0
2.133474816 0 0
1.807741326 0 0
1.524876999 0 0
2.712783808 0 0
2.451886116 0 0
2.133474840 0 0
1.807741331 0 0
1.524876938 0 0
2.712783795 0 0
2.451886199 0 0
2.133474982 0 0
1.807741440 0 0
1.524876872 0 0
1.524876970 0 0
1.324895466 0 0
1.207101617 0 0
1.160622520 0 0
1.174585269 0 0
1.524877021 0 0
1.324895454 0 0
1.207101580 0 0
1.160622504 0 0
1.174585331 0 0
1.524876999 0 0
1.324895405 0 0
1.207101518 0 0
1.160622446 0 0
1.174585293 0 0
1.524876938 0 0
1.324895359 0 0
1.207101475 0 0
1.160622389 0 0
1.174585202 0 0
1.524876872 0 0
1.324895353 0 0
1.207101490 0 0
1.160622377 0 0
1.174585106 0 0
1.174585269 0 0
1.235920451 0 0
1.322772700 0 0
1.411090187 0 0
1.476821084 0 0
1.174585331 0 0
1.235920412 0 0
1.322772592 0 0
1.411089981 0 0
1.476820690 0 0
1.174585293 0 0
1.235920334 0 0
1.322772482 0 0
1.411089832 0 0
1.476820477 0 0
1.174585202 0 0
1.235920266 0 0
1.322772426 0 0
1.411089798 0 0
1.476820500 0 0
1.174585106 0 0
1.235920259 0 0
1.322772477 0 0
1.411089936 0 0
1.476820816 0 0
1.476821084 0 0
1.502708138 0 0
1.498687193 0 0
1.481487757 0 0
1.467839338 0 0
1.476820690 0 0
1.502708154 0 0
1.498687009 0 0
1.481487151 0 0
1.467838477 0 0
1.476820477 0 0
1.502708079 0 0
1.498686875 0 0
1.481486889 0 0
1.467838150 0 0
1.476820500 0 0
1.502707967 0 0
1.498686836 0 0
1.481487005 0 0
1.467838368 0 0
1.476820816 0 0
1.502707870 0 0
1.498686939 0 0
1.481487529 0 0
1.467839145 0 0
3.000003000 0 0
3.000002212 0 0
3.000000750 0 0
2.999999963 0 0
3.000001200 0 0
3.000001312 0 0
3.000000965 0 0
3.000000307 0 0
2.999999912 0 0
3.000000356 0 0
3.000000750 0 0
3.000000550 0 0
3.000000159 0 0
2.999999896 0 0
3.000000075 0 0
3.000001312 0 0
3.000000965 0 0
3.000000307 0 0
2.999999912 0 0
3.000000356 0 0
3.000003000 0 0
3.000002212 0 0
3.000000750 0 0
2.999999963 0 0
3.000001200 0 0
3.000001200 0 0
2.999999119 0 0
2.999998050 0 0
2.999997656 0 0
2.999997600 0 0
3.000000356 0 0
2.999998573 0 0
2.999997691 0 0
2.999997453 0 0
2.999997600 0 0
3.000000075 0 0
2.999998391 0 0
2.999997572 0 0
2.999997386 0 0
2.999997600 0 0
3.000000356 0 0
2.999998573 0 0
2.999997691 0 0
2.999997453 0 0
2.999997600 0 0
3.000001200 0 0
2.999999119 0 0
2.999998050 0 0
2.999997656 0 0
2.999997600 0 0
2.999997600 0 0
2.995509884 0 0
2.964095874 0 0
2.878829276 0 0
2.712783795 0 0
2.999997600 0 0
2.995509694 0 0
2.964095620 0 0
2.878829083 0 0
2.712783787 0 0
2.999997600 0 0
2.995509631 0 0
2.964095536 0 0
2.878829018 0 0
2.712783784 0 0
2.999997600 0 0
2.995509694 0 0
2.964095620 0 0
2.878829083 0 0
2.712783787 0 0
2.999997600 0 0
2.995509884 0 0
2.964095874 0 0
2.878829276 0 0
2.712783795 0 0
2.712783795 0 0
2.451886199 0 0
2.133474982 0 0
1.807741440 0 0
1.524876872 0 0
2.712783787 0 0
2.451886075 0 0
2.133474776 0 0
1.807741243 0 0
1.524876829 0 0
2.712783784 0 0
2.451886034 0 0
2.133474707 0 0
1.807741177 0 0
1.524876814 0 0
2.712783787 0 0
2.451886075 0 0
2.133474776 0 0
1.807741243 0 0
1.524876829 0 0
2.712783795 0 0
2.451886199 0 0
2.133474982 0 0
1.807741440 0 0
1.524876872 0 0
1.524876872 0 0
1.324895353 0 0
1.207101490 0 0
1.160622377 0 0
1.174585106 0 0
1.524876829 0 0
1.324895234 0 0
1.207101339 0 0
1.160622243 0 0
1.174585044 0 0
1.524876814 0 0
1.324895195 0 0
1.207101289 0 0
1.160622198 0 0
1.174585023 0 0
1.524876829 0 0
1.324895234 0 0
1.207101339 0 0
1.160622243 0 0
1.174585044 0 0
1.524876872 0 0
1.324895353 0 0
1.207101490 0 0
1.160622377 0 0
1.174585106 0 0
1.174585106 0 0
1.235920259 0 0
1.322772477 0 0
1.411089936 0 0
1.476820816 0 0
1.174585044 0 0
1.235920091 0 0
1.322772234 0 0
1.411089594 0 0
1.476820292 0 0
1.174585023 0 0
1.235920035 0 0
1.322772154 0 0
1.411089480 0 0
1.476820117 0 0
1.174585044 0 0
1.235920091 0 0
1.322772234 0 0
1.411089594 0 0
1.476820292 0 0
1.174585106 0 0
1.235920259 0 0
1.322772477 0 0
1.411089936 0 0
1.476820816 0 0
1.476820816 0 0
1.502707870 0 0
1.498686939 0 0
1.481487529 0 0
1.467839145 0 0
1.476820292 0 0
1.502707767 0 0
1.498686660 0 0
1.481486868 0 0
1.467838289 0 0
1.476820117 0 0
1.502707733 0 0
1.498686567 0 0
1.481486647 0 0
1.467838003 0 0
1.476820292 0 0
1.502707767 0 0
1.498686660 0 0
1.481486868 0 0
1.467838289 0 0
1.476820816 0 0
1.502707870 0 0
1.498686939 0 0
1.481487529 0 0
1.467839145 0 0
3.000003000 0 0
3.000002212 0 0
3.000000750 0 0
2.999999963 0 0
3.000001200 0 0
3.000001312 0 0
3.000000965 0 0
3.000000307 0 0
2.999999912 0 0
3.000000356 0 0
3.000000750 0 0
3.000000550 0 0
3.000000159 0 0
2.999999896 0 0
3.000000075 0 0
3.000001312 0 0
3.000000965 0 0
3.000000307 0 0
2.999999912 0 0
3.000000356 0 0
3.000003000 0 0
3.000002212 0 0
3.000000750 0 0
2.999999963 0 0
3.000001200 0 0
3.000001200 0 0
2.999999119 0 0
2.999998050 0 0
2.999997656 0 0
2.999997600 0 0
3.000000356 0 0
2.999998573 0 0
2.999997691 0 0
2.999997453 0 0
2.999997600 0 0
3.000000075 0 0
2.999998391 0 0
2.999997572 0 0
2.999997386 0 0
2.999997600 0 0
3.000000356 0 0
2.999998573 0 0
2.999997691 0 0
2.999997453 0 0
2.999997600 0 0
3.000001200 0 0
2.999999119 0 0
2.999998050 0 0
2.999997656 0 0
2.999997600 0 0
2.999997600 0 0
2.995509884 0 0
2.964095874 0 0
2.878829276 0 0
2.712783795 0 0
2.999997600 0 0
2.995509695 0 0
2.964095623 0 0
2.878829092 0 0
2.712783808 0 0
2.999997600 0 0
2.995509632 0 0
2.964095540 0 0
2.878829034 0 0
2.712783820 0 0
2.999997600 0 0
2.995509695 0 0
2.964095625 0 0
2.878829099 0 0
2.712783824 0 0
2.999997600 0 0
2.995509885 0 0
2.964095877 0 0
2.878829284 0 0
2.712783814 0 0
2.712783795 0 0
2.451886199 0 0
2.133474982 0 0
1.807741440 0 0
1.524876872 0 0
2.712783808 0 0
2.451886116 0 0
2.133474840 0 0
1.807741331 0 0
1.524876938 0 0
2.712783820 0 0
2.451886102 0 0
2.133474816 0 0
1.807741326 0 0
1.524876999 0 0
2.712783824 0 0
2.451886146 0 0
2.133474889 0 0
1.807741398 0 0
1.524877021 0 0
2.712783814 0 0
2.451886235 0 0
2.133475039 0 0
1.807741519 0 0
1.524876970 0 0
1.524876872 0 0
1.324895353 0 0
1.207101490 0 0
1.160622377 0 0
1.174585106 0 0
1.524876938 0 0
1.324895359 0 0
1.207101475 0 0
1.160622389 0 0
1.174585202 0 0
1.524876999 0 0
1.324895405 0 0
1.207101518 0 0
1.160622446 0 0
1.174585293 0 0
1.524877021 0 0
1.324895454 0 0
1.207101580 0 0
1.160622504 0 0
1.174585331 0 0
1.524876970 0 0
1.324895466 0 0
1.207101617 0 0
1.160622520 0 0
1.174585269 0 0
1.174585106 0 0
1.235920259 0 0
1.322772477 0 0
1.411089936 0 0
1.476820816 0 0
1.174585202 0 0
1.235920266 0 0
1.322772426 0 0
1.411089798 0 0
1.476820500 0 0
1.174585293 0 0
1.235920334 0 0
1.322772482 0 0
1.411089832 0 0
1.476820477 0 0
1.174585331 0 0
1.235920412 0 0
1.322772592 0 0
1.411089981 0 0
1.476820690 0 0
1.174585269 0 0
1.235920451 0 0
1.322772700 0 0
1.411090187 0 0
1.476821084 0 0
1.476820816 0 0
1.502707870 0 0
1.498686939 0 0
1.481487529 0 0
1.467839145 0 0
1.476820500 0 0
1.502707967 0 0
1.498686836 0 0
1.481487005 0 0
1.467838368 0 0
1.476820477 0 0
1.502708079 0 0
1.498686875 0 0
1.481486889 0 0
1.467838150 0 0
1.476820690 0 0
1.502708154 0 0
1.498687009 0 0
1.481487151 0 0
1.467838477 0 0
1.476821084 0 0
1.502708138 0 0
1.498687193 0 0
1.481487757 0 0
1.467839338 0 0
3.000003000 0 0
3.000002212 0 0
3.000000750 0 0
2.999999963 0 0
3.000001200 0 0
3.000001266 0 0
3.000000934 0 0
3.000000304 0 0
2.999999917 0 0
3.000000319 0 0
3.000000375 0 0
3.000000302 0 0
3.000000131 0 0
2.999999932 0 0
2.999999775 0 0
3.000000047 0 0
3.000000131 0 0
3.000000212 0 0
3.000000035 0 0
2.999999344 0 0
3.000000000 0 0
3.000000234 0 0
3.000000525 0 0
3.000000253 0 0
2.999998800 0 0
3.000001200 0 0
2.999999119 0 0
2.999998050 0 0
2.999997656 0 0
2.999997600 0 0
3.000000319 0 0
2.999998576 0 0
2.999997718 0 0
2.999997495 0 0
2.999997656 0 0
2.999999775 0 0
2.999998419 0 0
2.999997788 0 0
2.999997718 0 0
2.999998050 0 0
2.999999344 0 0
2.999998668 0 0
2.999998419 0 0
2.999998576 0 0
2.999999119 0 0
2.999998800 0 0
2.999999344 0 0
2.999999775 0 0
3.000000319 0 0
3.000001200 0 0
2.999997600 0 0
2.995509885 0 0
2.964095877 0 0
2.878829284 0 0
2.712783814 0 0
2.999997656 0 0
2.995509737 0 0
2.964095659 0 0
2.878829125 0 0
2.712783841 0 0
2.999998050 0 0
2.995509975 0 0
2.964095838 0 0
2.878829341 0 0
2.712784183 0 0
2.999999119 0 0
2.995510855 0 0
2.964096649 0 0
2.878830192 0 0
2.712785179 0 0
3.000001200 0 0
2.995512637 0 0
2.964098321 0 0
2.878831935 0 0
2.712787165 0 0
2.712783814 0 0
2.451886235 0 0
2.133475039 0 0
1.807741519 0 0
1.524876970 0 0
2.712783841 0 0
2.451886116 0 0
2.133474803 0 0
1.807741264 0 0
1.524876857 0 0
2.712784183 0 0
2.451886306 0 0
2.133474838 0 0
1.807741215 0 0
1.524876872 0 0
2.712785179 0 0
2.451887081 0 0
2.133475354 0 0
1.807741558 0 0
1.524877251 0 0
2.712787165 0 0
2.451888718 0 0
2.133476565 0 0
1.807742478 0 0
1.524878228 0 0
1.524876970 0 0
1.324895466 0 0
1.207101617 0 0
1.160622520 0 0
1.174585269 0 0
1.524876857 0 0
1.324895259 0 0
1.207101366 0 0
1.160622282 0 0
1.174585107 0 0
1.524876872 0 0
1.324895177 0 0
1.207101231 0 0
1.160622144 0 0
1.174585023 0 0
1.524877251 0 0
1.324895421 0 0
1.207101394 0 0
1.160622293 0 0
1.174585241 0 0
1.524878228 0 0
1.324896192 0 0
1.207102038 0 0
1.160622918 0 0
1.174585986 0 0
1.174585269 0 0
1.235920451 0 0
1.322772700 0 0
1.411090187 0 0
1.476821084 0 0
1.174585107 0 0
1.235920177 0 0
1.322772349 0 0
1.411089732 0 0
1.476820433 0 0
1.174585023 0 0
1.235920013 0 0
1.322772133 0 0
1.411089425 0 0
1.476819934 0 0
1.174585241 0 0
1.235920160 0 0
1.322772242 0 0
1.411089416 0 0
1.476819613 0 0
1.174585986 0 0
1.235920820 0 0
1.322772867 0 0
1.411089851 0 0
1.476819498 0 0
1.476821084 0 0
1.502708138 0 0
1.498687193 0 0
1.481487757 0 0
1.467839338 0 0
1.476820433 0 0
1.502707947 0 0
1.498686850 0 0
1.481487063 0 0
1.467838508 0 0
1.476819934 0 0
1.502707772 0 0
1.498686639 0 0
1.481486702 0 0
1.467838132 0 0
1.476819613 0 0
1.502707770 0 0
1.498686684 0 0
1.481486694 0 0
1.467838139 0 0
1.476819498 0 0
1.502708100 0 0
1.498687113 0 0
1.481487060 0 0
1.467838464 0 0
3.000000000 0 0
3.000000234 0 0
3.000000525 0 0
3.000000253 0 0
2.999998800 0 0
3.000000000 0 0
3.000000111 0 0
3.000000316 0 0
3.000000427 0 0
3.000000253 0 0
3.000000000 0 0
3.000000040 0 0
3.000000150 0 0
3.000000316 0 0
3.000000525 0 0
3.000000000 0 0
3.000000008 0 0
3.000000040 0 0
3.000000111 0 0
3.000000234 0 0
3.000000000 0 0
3.000000000 0 0
3.000000000 0 0
3.000000000 0 0
3.000000000 0 0
2.999998800 0 0
2.999999344 0 0
2.999999775 0 0
3.000000319 0 0
3.000001200 0 0
3.000000253 0 0
3.000000035 0 0
2.999999932 0 0
2.999999917 0 0
2.999999963 0 0
3.000000525 0 0
3.000000212 0 0
3.000000131 0 0
3.000000304 0 0
3.000000750 0 0
3.000000234 0 0
3.000000131 0 0
3.000000302 0 0
3.000000934 0 0
3.000002212 0 0
3.000000000 0 0
3.000000047 0 0
3.000000375 0 0
3.000001266 0 0
3.000003000 0 0
3.000001200 0 0
2.995512637 0 0
2.964098321 0 0
2.878831935 0 0
2.712787165 0 0
2.999999963 0 0
2.995512194 0 0
2.964098145 0 0
2.878831505 0 0
2.712785960 0 0
3.000000750 0 0
2.995512586 0 0
2.964098393 0 0
2.878831846 0 0
2.712786621 0 0
3.000002212 0 0
2.995513242 0 0
2.964098763 0 0
2.878832435 0 0
2.712787919 0 0
3.000003000 0 0
2.995513588 0 0
2.964098953 0 0
2.878832748 0 0
2.712788624 0 0
2.712787165 0 0
2.451888718 0 0
2.133476565 0 0
1.807742478 0 0
1.524878228 0 0
2.712785960 0 0
2.451888112 0 0
2.133476555 0 0
1.807742681 0 0
1.524877882 0 0
2.712786621 0 0
2.451888537 0 0
2.133476911 0 0
1.807743142 0 0
1.524878627 0 0
2.712787919 0 0
2.451889299 0 0
2.133477337 0 0
1.807743595 0 0
1.524879636 0 0
2.712788624 0 0
2.451889706 0 0
2.133477536 0 0
1.807743774 0 0
1.524880081 0 0
1.524878228 0 0
1.324896192 0 0
1.207102038 0 0
1.160622918 0 0
1.174585986 0 0
1.524877882 0 0
1.324896147 0 0
1.207102131 0 0
1.160622956 0 0
1.174585741 0 0
1.524878627 0 0
1.324896627 0 0
1.207102489 0 0
1.160623349 0 0
1.174586343 0 0
1.524879636 0 0
1.324897171 0 0
1.207102802 0 0
1.160623708 0 0
1.174587067 0 0
1.524880081 0 0
1.324897312 0 0
1.207102759 0 0
1.160623643 0 0
1.174587186 0 0
1.174585986 0 0
1.235920820 0 0
1.322772867 0 0
1.411089851 0 0
1.476819498 0 0
1.174585741 0 0
1.235921005 0 0
1.322773288 0 0
1.411090550 0 0
1.476820750 0 0
1.174586343 0 0
1.235921496 0 0
1.322773803 0 0
1.411091160 0 0
1.476821459 0 0
1.174587067 0 0
1.235921920 0 0
1.322774178 0 0
1.411091546 0 0
1.476821728 0 0
1.174587186 0 0
1.235921901 0 0
1.322774178 0 0
1.411091577 0 0
1.476821658 0 0
1.476819498 0 0
1.502708100 0 0
1.498687113 0 0
1.481487060 0 0
1.467838464 0 0
1.476820750 0 0
1.502708755 0 0
1.498687601 0 0
1.481487587 0 0
1.467839012 0 0
1.476821459 0 0
1.502709349 0 0
1.498688185 0 0
1.481488188 0 0
1.467839581 0 0
1.476821728 0 0
1.502709704 0 0
1.498688563 0 0
1.481488558 0 0
1.467839946 0 0
1.476821658 0 0
1.502709640 0 0
1.498688432 0 0
1.481488392 0 0
1.467839878 0 0
VECTORS u float
-0.000000000 0 0
0.000000000 0 0
0.000000000 0 0
-0.000000000 0 0
-0.000000000 0 0
0.000000000 0 0
-0.000000000 0 0
-0.000000000 0 0
0.000000000 0 0
0.000000000 0 0
0.000000000 0 0
-0.000000000 0 0
-0.000000000 0 0
0.000000000 0 0
0.000000000 0 0
0.000000000 0 0
-0.000000000 0 0
-0.000000000 0 0
0.000000000 0 0
0.000000000 0 0
0.000000000 0 0