# vtk DataFile Version 2.0
Square plate test
ASCII
DATASET UNSTRUCTURED_GRID
POINTS 100 float
0 0.000000000 0
0.005000000 0.000000000 0
0.146428571 0.000000000 0
0.287857143 0.000000000 0
0.429285714 0.000000000 0
0.570714286 0.000000000 0
0.712142857 0.000000000 0
0.853571429 0.000000000 0
0.995000000 0.000000000 0
1.000000000 0.000000000 0
0.000000000 0.005000000 0
0.005000000 0.005000000 0
0.146428571 0.005000000 0
0.287857143 0.005000000 0
0.429285714 0.005000000 0
0.570714286 0.005000000 0
0.712142857 0.005000000 0
0.853571429 0.005000000 0
0.995000000 0.005000000 0
1.000000000 0.005000000 0
0.000000000 0.146428571 0
0.005000000 0.146428571 0
0.146428571 0.146428571 0
0.287857143 0.146428571 0
0.429285714 0.146428571 0
0.570714286 0.146428571 0
0.712142857 0.146428571 0
0.853571429 0.146428571 0
0.995000000 0.146428571 0
1.000000000 0.146428571 0
0.000000000 0.287857143 0
0.005000000 0.287857143 0
0.146428571 0.287857143 0
0.287857143 0.287857143 0
0.429285714 0.287857143 0
0.570714286 0.287857143 0
0.712142857 0.287857143 0
0.853571429 0.287857143 0
0.995000000 0.287857143 0
1.000000000 0.287857143 0
0.000000000 0.429285714 0
0.005000000 0.429285714 0
0.146428571 0.429285714 0
0.287857143 0.429285714 0
0.429285714 0.429285714 0
0.570714286 0.429285714 0
0.712142857 0.429285714 0
0.853571429 0.429285714 0
0.995000000 0.429285714 0
1.000000000 0.429285714 0
0.000000000 0.570714286 0
0.005000000 0.570714286 0
0.146428571 0.570714286 0
0.287857143 0.570714286 0
0.429285714 0.570714286 0
0.570714286 0.570714286 0
0.712142857 0.570714286 0
0.853571429 0.570714286 0
0.995000000 0.570714286 0
1.000000000 0.570714286 0
0.000000000 0.712142857 0
0.005000000 0.712142857 0
0.146428571 0.712142857 0
0.287857143 0.712142857 0
0.429285714 0.712142857 0
0.570714286 0.712142857 0
0.712142857 0.712142857 0
0.853571429 0.712142857 0
0.995000000 0.712142857 0
1.000000000 0.712142857 0
0.000000000 0.853571429 0
0.005000000 0.853571429 0
0.146428571 0.853571429 0
0.287857143 0.853571429 0
0.429285714 0.853571429 0
0.570714286 0.853571429 0
0.712142857 0.853571429 0
0.853571429 0.853571429 0
0.995000000 0.853571429 0
1.000000000 0.853571429 0
0.000000000 0.995000000 0
0.005000000 0.995000000 0
0.146428571 0.995000000 0
0.287857143 0.995000000 0
0.429285714 0.995000000 0
0.570714286 0.995000000 0
0.712142857 0.995000000 0
0.853571429 0.995000000 0
0.995000000 0.995000000 0
1.000000000 0.995000000 0
0.000000000 1.000000000 0
0.005000000 1.000000000 0
0.146428571 1.000000000 0
0.287857143 1.000000000 0
0.429285714 1.000000000 0
0.570714286 1.000000000 0
0.712142857 1.000000000 0
0.853571429 1.000000000 0
0.995000000 1.000000000 0
1.000000000 1.000000000 0

CELLS 81 405
4 0 1 11 10
4 1 2 12 11
4 2 3 13 12
4 3 4 14 13
4 4 5 15 14
4 5 6 16 15
4 6 7 17 16
4 7 8 18 17
4 8 9 19 18
4 10 11 21 20
4 11 12 22 21
4 12 13 23 22
4 13 14 24 23
4 14 15 25 24
4 15 16 26 25
4 16 17 27 26
4 17 18 28 27
4 18 19 29 28
4 20 21 31 30
4 21 22 32 31
4 22 23 33 32
4 23 24 34 33
4 24 25 35 34
4 25 26 36 35
4 26 27 37 36
4 27 28 38 37
4 28 29 39 38
4 30 31 41 40
4 31 32 42 41
4 32 33 43 42
4 33 34 44 43
4 34 35 45 44
4 35 36 46 45
4 36 37 47 46
4 37 38 48 47
4 38 39 49 48
4 40 41 51 50
4 41 42 52 51
4 42 43 53 52
4 43 44 54 53
4 44 45 55 54
4 45 46 56 55
4 46 47 57 56
4 47 48 58 57
4 48 49 59 58
4 50 51 61 60
4 51 52 62 61
4 52 53 63 62
4 53 54 64 63
4 54 55 65 64
4 55 56 66 65
4 56 57 67 66
4 57 58 68 67
4 58 59 69 68
4 60 61 71 70
4 61 62 72 71
4 62 63 73 72
4 63 64 74 73
4 64 65 75 74
4 65 66 76 75
4 66 67 77 76
4 67 68 78 77
4 68 69 79 78
4 70 71 81 80
4 71 72 82 81
4 72 73 83 82
4 73 74 84 83
4 74 75 85 84
4 75 76 86 85
4 76 77 87 86
4 77 78 88 87
4 78 79 89 88
4 80 81 91 90
4 81 82 92 91
4 82 83 93 92
4 83 84 94 93
4 84 85 95 94
4 85 86 96 95
4 86 87 97 96
4 87 88 98 97
4 88 89 99 98

CELL_TYPES 81
9
9
9
9
9
9
9
9
9
9
9
9
9
9
9
9
9
9
9
9
9
9
9
9
9
9
9
9
9
9
9
9
9
9
9
9
9
9
9
9
9
9
9
9
9
9
9
9
9
9
9
9
9
9
9
9
9
9
9
9
9
9
9
9
9
9
9
9
9
9
9
9
9
9
9
9
9
9
9
9
9
POINT_DATA 100
VECTORS y float
0 0 1.000000000
0 0 0.980100000
0 0 0.500051020
0 0 0.180018367
0 0 0.020002041
0 0 0.000000000
0 0 0.000000000
0 0 0.000000000
0 0 0.000000000
0 0 0.000000000
0 0 0.980100000
0 0 0.953991394
0 0 0.496965189
0 0 0.175481859
0 0 0.021289827
0 0 -0.001352046
0 0 0.000745289
0 0 -0.000014990
0 0 0.000317107
0 0 0.000000000
0 0 0.500051020
0 0 0.496965189
0 0 0.396261800
0 0 0.133563709
0 0 0.018903777
0 0 -0.006479339
0 0 0.007702219
0 0 0.007414118
0 0 0.000245411
0 0 0.000000000
0 0 0.180018367
0 0 0.175481859
0 0 0.133563709
0 0 0.078563260
0 0 -0.005123972
0 0 -0.006613267
0 0 0.009290721
0 0 0.014173906
0 0 0.000798329
0 0 0.000000000
0 0 0.020002041
0 0 0.021289827
0 0 0.018903777
0 0 -0.005123972
0 0 -0.009591443
0 0 -0.011912240
0 0 0.009295199
0 0 0.015263544
0 0 0.000718395
0 0 0.000000000
0 0 0.000000000
0 0 -0.001352046
0 0 -0.006479339
0 0 -0.006613267
0 0 -0.011912240
0 0 -0.004944015
0 0 0.001356111
0 0 0.010620817
0 0 0.000484596
0 0 0.000000000
0 0 0.000000000
0 0 0.000745289
0 0 0.007702219
0 0 0.009290721
0 0 0.009295199
0 0 0.001356111
0 0 -0.001770985
0 0 -0.000080553
0 0 0.000050763
0 0 0.000000000
0 0 0.000000000
0 0 -0.000014990
0 0 0.007414118
0 0 0.014173906
0 0 0.015263544
0 0 0.010620817
0 0 -0.000080553
0 0 -0.005850887
0 0 -0.000390457
0 0 0.000000000
0 0 0.000000000
0 0 0.000317107
0 0 0.000245411
0 0 0.000798329
0 0 0.000718395
0 0 0.000484596
0 0 0.000050763
0 0 -0.000390457
0 0 0.000030423
0 0 0.000000000
0 0 0.000000000
0 0 0.000000000
0 0 0.000000000
0 0 0.000000000
0 0 0.000000000
0 0 0.000000000
0 0 0.000000000
0 0 0.000000000
0 0 0.000000000
0 0 0.000000000
VECTORS u float
0 0 -0.000000000
0 0 0.000000000
0 0 -0.000000000
0 0 0.000000000
0 0 -0.000000000
0 0 0.000000000
0 0 -0.000000000
0 0 0.000000000
0 0 -0.000000000
0 0 0.000000000
0 0 0.000000000
0 0 0.027344427
0 0 -0.153197423
0 0 -0.070906044
0 0 -0.036133539
0 0 0.009443778
0 0 0.001334774
0 0 -0.000505235
0 0 -0.001769768
0 0 -0.000000000
0 0 -0.000000000
0 0 -0.153197423
0 0 -2.917743056
0 0 -1.598497613
0 0 -0.251452531
0 0 0.139715722
0 0 0.019672426
0 0 -0.056638743
0 0 -0.002383127
0 0 0.000000000
0 0 -0.000000000
0 0 -0.070906044
0 0 -1.598497613
0 0 -2.055848167
0 0 -0.440793946
0 0 0.315178215
0 0 0.073714045
0 0 -0.132450800
0 0 -0.008582207
0 0 -0.000000000
0 0 0.000000000
0 0 -0.036133539
0 0 -0.251452531
0 0 -0.440793946
0 0 -0.294481678
0 0 0.259490824
0 0 0.143327383
0 0 -0.141171862
0 0 -0.009287752
0 0 0.000000000
0 0 -0.000000000
0 0 0.009443778
0 0 0.139715722
0 0 0.315178215
0 0 0.259490824
0 0 0.058423706
0 0 0.056568427
0 0 -0.052223001
0 0 -0.006081928
0 0 -0.000000000
0 0 0.000000000
0 0 0.001334774
0 0 0.019672426
0 0 0.073714045
0 0 0.143327383
0 0 0.056568427
0 0 -0.074720774
0 0 -0.026511707
0 0 -0.000893978
0 0 0.000000000
0 0 -0.000000000
0 0 -0.000505235
0 0 -0.056638743
0 0 -0.132450800
0 0 -0.141171862
0 0 -0.052223001
0 0 -0.026511707
0 0 -0.063152350
0 0 -0.002429723
0 0 -0.000000000
0 0 -0.000000000
0 0 -0.001769768
0 0 -0.002383127
0 0 -0.008582207
0 0 -0.009287752
0 0 -0.006081928
0 0 -0.000893978
0 0 -0.002429723
0 0 0.000084758
0 0 0.000000000
0 0 0.000000000
0 0 -0.000000000
0 0 -0.000000000
0 0 -0.000000000
0 0 0.000000000
0 0 -0.000000000
0 0 0.000000000
0 0 -0.000000000
0 0 0.000000000
0 0 -0.000000000
VECTORS lamda float
0 0 0.000000000
0 0 0.000000000
0 0 0.000000000
0 0 0.000000000
0 0 0.000000000
0 0 0.000000000
0 0 0.000000000
0 0 0.000000000
0 0 0.000000000
0 0 0.000000000
0 0 0.000000000
0 0 0.000273444
0 0 -0.001531974
0 0 -0.000709060
0 0 -0.000361335
0 0 0.000094438
0 0 0.000013348
0 0 -0.000005052
0 0 -0.000017698
0 0 0.000000000
0 0 0.000000000
0 0 -0.001531974
0 0 -0.029177431
0 0 -0.015984976
0 0 -0.002514525
0 0 0.001397157
0 0 0.000196724
0 0 -0.000566387
0 0 -0.000023831
0 0 0.000000000
0 0 0.000000000
0 0 -0.000709060
0 0 -0.015984976
0 0 -0.020558482
0 0 -0.004407939
0 0 0.003151782
0 0 0.000737140
0 0 -0.001324508
0 0 -0.000085822
0 0 0.000000000
0 0 0.000000000
0 0 -0.000361335
0 0 -0.002514525
0 0 -0.004407939
0 0 -0.002944817
0 0 0.002594908
0 0 0.001433274
0 0 -0.001411719
0 0 -0.000092878
0 0 0.000000000
0 0 0.000000000
0 0 0.000094438
0 0 0.001397157
0 0 0.003151782
0 0 0.002594908
0 0 0.000584237
0 0 0.000565684
0 0 -0.000522230
0 0 -0.000060819
0 0 0.000000000
0 0 0.000000000
0 0 0.000013348
0 0 0.000196724
0 0 0.000737140
0 0 0.001433274
0 0 0.000565684
0 0 -0.000747208
0 0 -0.000265117
0 0 -0.000008940
0 0 0.000000000
0 0 0.000000000
0 0 -0.000005052
0 0 -0.000566387
0 0 -0.001324508
0 0 -0.001411719
0 0 -0.000522230
0 0 -0.000265117
0 0 -0.000631523
0 0 -0.000024297
0 0 0.000000000
0 0 0.000000000
0 0 -0.000017698
0 0 -0.000023831
0 0 -0.000085822
0 0 -0.000092878
0 0 -0.000060819
0 0 -0.000008940
0 0 -0.000024297
0 0 0.000000848
0 0 0.000000000
0 0 0.000000000
0 0 0.000000000
0 0 0.000000000
0 0 0.000000000
0 0 0.000000000
0 0 0.000000000
0 0 0.000000000
0 0 0.000000000
0 0 0.000000000
0 0 0.000000000
