# vtk DataFile Version 2.0
Square plate test
ASCII
DATASET UNSTRUCTURED_GRID
POINTS 100 float
0 0.000000000 0
0.005000000 0.000000000 0
0.146428571 0.000000000 0
0.287857143 0.000000000 0
0.429285714 0.000000000 0
0.570714286 0.000000000 0
0.712142857 0.000000000 0
0.853571429 0.000000000 0
0.995000000 0.000000000 0
1.000000000 0.000000000 0
0.000000000 0.005000000 0
0.005000000 0.005000000 0
0.146428571 0.005000000 0
0.287857143 0.005000000 0
0.429285714 0.005000000 0
0.570714286 0.005000000 0
0.712142857 0.005000000 0
0.853571429 0.005000000 0
0.995000000 0.005000000 0
1.000000000 0.005000000 0
0.000000000 0.146428571 0
0.005000000 0.146428571 0
0.146428571 0.146428571 0
0.287857143 0.146428571 0
0.429285714 0.146428571 0
0.570714286 0.146428571 0
0.712142857 0.146428571 0
0.853571429 0.146428571 0
0.995000000 0.146428571 0
1.000000000 0.146428571 0
0.000000000 0.287857143 0
0.005000000 0.287857143 0
0.146428571 0.287857143 0
0.287857143 0.287857143 0
0.429285714 0.287857143 0
0.570714286 0.287857143 0
0.712142857 0.287857143 0
0.853571429 0.287857143 0
0.995000000 0.287857143 0
1.000000000 0.287857143 0
0.000000000 0.429285714 0
0.005000000 0.429285714 0
0.146428571 0.429285714 0
0.287857143 0.429285714 0
0.429285714 0.429285714 0
0.570714286 0.429285714 0
0.712142857 0.429285714 0
0.853571429 0.429285714 0
0.995000000 0.429285714 0
1.000000000 0.429285714 0
0.000000000 0.570714286 0
0.005000000 0.570714286 0
0.146428571 0.570714286 0
0.287857143 0.570714286 0
0.429285714 0.570714286 0
0.570714286 0.570714286 0
0.712142857 0.570714286 0
0.853571429 0.570714286 0
0.995000000 0.570714286 0
1.000000000 0.570714286 0
0.000000000 0.712142857 0
0.005000000 0.712142857 0
0.146428571 0.712142857 0
0.287857143 0.712142857 0
0.429285714 0.712142857 0
0.570714286 0.712142857 0
0.712142857 0.712142857 0
0.853571429 0.712142857 0
0.995000000 0.712142857 0
1.000000000 0.712142857 0
0.000000000 0.853571429 0
0.005000000 0.853571429 0
0.146428571 0.853571429 0
0.287857143 0.853571429 0
0.429285714 0.853571429 0
0.570714286 0.853571429 0
0.712142857 0.853571429 0
0.853571429 0.853571429 0
0.995000000 0.853571429 0
1.000000000 0.853571429 0
0.000000000 0.995000000 0
0.005000000 0.995000000 0
0.146428571 0.995000000 0
0.287857143 0.995000000 0
0.429285714 0.995000000 0
0.570714286 0.995000000 0
0.712142857 0.995000000 0
0.853571429 0.995000000 0
0.995000000 0.995000000 0
1.000000000 0.995000000 0
0.000000000 1.000000000 0
0.005000000 1.000000000 0
0.146428571 1.000000000 0
0.287857143 1.000000000 0
0.429285714 1.000000000 0
0.570714286 1.000000000 0
0.712142857 1.000000000 0
0.853571429 1.000000000 0
0.995000000 1.000000000 0
1.000000000 1.000000000 0

CELLS 81 405
4 0 1 11 10
4 1 2 12 11
4 2 3 13 12
4 3 4 14 13
4 4 5 15 14
4 5 6 16 15
4 6 7 17 16
4 7 8 18 17
4 8 9 19 18
4 10 11 21 20
4 11 12 22 21
4 12 13 23 22
4 13 14 24 23
4 14 15 25 24
4 15 16 26 25
4 16 17 27 26
4 17 18 28 27
4 18 19 29 28
4 20 21 31 30
4 21 22 32 31
4 22 23 33 32
4 23 24 34 33
4 24 25 35 34
4 25 26 36 35
4 26 27 37 36
4 27 28 38 37
4 28 29 39 38
4 30 31 41 40
4 31 32 42 41
4 32 33 43 42
4 33 34 44 43
4 34 35 45 44
4 35 36 46 45
4 36 37 47 46
4 37 38 48 47
4 38 39 49 48
4 40 41 51 50
4 41 42 52 51
4 42 43 53 52
4 43 44 54 53
4 44 45 55 54
4 45 46 56 55
4 46 47 57 56
4 47 48 58 57
4 48 49 59 58
4 50 51 61 60
4 51 52 62 61
4 52 53 63 62
4 53 54 64 63
4 54 55 65 64
4 55 56 66 65
4 56 57 67 66
4 57 58 68 67
4 58 59 69 68
4 60 61 71 70
4 61 62 72 71
4 62 63 73 72
4 63 64 74 73
4 64 65 75 74
4 65 66 76 75
4 66 67 77 76
4 67 68 78 77
4 68 69 79 78
4 70 71 81 80
4 71 72 82 81
4 72 73 83 82
4 73 74 84 83
4 74 75 85 84
4 75 76 86 85
4 76 77 87 86
4 77 78 88 87
4 78 79 89 88
4 80 81 91 90
4 81 82 92 91
4 82 83 93 92
4 83 84 94 93
4 84 85 95 94
4 85 86 96 95
4 86 87 97 96
4 87 88 98 97
4 88 89 99 98

CELL_TYPES 81
9
9
9
9
9
9
9
9
9
9
9
9
9
9
9
9
9
9
9
9
9
9
9
9
9
9
9
9
9
9
9
9
9
9
9
9
9
9
9
9
9
9
9
9
9
9
9
9
9
9
9
9
9
9
9
9
9
9
9
9
9
9
9
9
9
9
9
9
9
9
9
9
9
9
9
9
9
9
9
9
9
POINT_DATA 100
VECTORS y float
0 0 0.000000000
0 0 1.000000000
0 0 1.000000000
0 0 1.000000000
0 0 1.000000000
0 0 0.000000000
0 0 0.000000000
0 0 0.000000000
0 0 0.000000000
0 0 0.000000000
0 0 0.000000000
0 0 0.129019689
0 0 0.310766726
0 0 0.018941443
0 0 0.048974794
0 0 -0.115771223
0 0 0.017910867
0 0 -0.024938065
0 0 0.007325010
0 0 0.000000000
0 0 0.000000000
0 0 -0.105187215
0 0 1.453180034
0 0 1.100823231
0 0 1.011711210
0 0 0.158331895
0 0 0.031502894
0 0 -0.021615056
0 0 -0.018213817
0 0 0.000000000
0 0 0.000000000
0 0 -0.036739627
0 0 0.842217325
0 0 0.781515055
0 0 0.757404597
0 0 0.205070457
0 0 0.049504852
0 0 -0.019690755
0 0 -0.007776041
0 0 0.000000000
0 0 0.000000000
0 0 -0.044331976
0 0 1.108494391
0 0 0.865860119
0 0 0.853436207
0 0 0.195179544
0 0 0.082002081
0 0 -0.012476894
0 0 -0.008243426
0 0 0.000000000
0 0 0.000000000
0 0 -0.057816016
0 0 1.013472005
0 0 0.861568754
0 0 0.806008638
0 0 0.169175786
0 0 0.032293907
0 0 -0.014173044
0 0 -0.009046975
0 0 0.000000000
0 0 0.000000000
0 0 -0.034290721
0 0 0.980790697
0 0 0.829585722
0 0 0.841362580
0 0 0.244048572
0 0 0.094519091
0 0 -0.016208176
0 0 -0.006021440
0 0 0.000000000
0 0 0.000000000
0 0 -0.062499808
0 0 1.185094392
0 0 0.869557988
0 0 0.783591873
0 0 0.075672099
0 0 0.023542075
0 0 -0.013064844
0 0 -0.012728006
0 0 0.000000000
0 0 0.000000000
0 0 -0.062484566
0 0 0.747082729
0 0 0.966308977
0 0 0.945581598
0 0 0.406068297
0 0 0.054523008
0 0 0.023494959
0 0 -0.003348919
0 0 0.000000000
0 0 0.000000000
0 0 -0.154667717
0 0 0.680584442
0 0 0.948933577
0 0 0.963086959
0 0 0.468910414
0 0 0.074098553
0 0 0.021421112
0 0 0.000280059
0 0 0.000000000
VECTORS u float
0 0 -0.000000000
0 0 0.000000000
0 0 -0.000000000
0 0 0.000000000
0 0 -0.000000000
0 0 0.000000000
0 0 0.000000000
0 0 -0.000000000
0 0 0.000000000
0 0 -0.000000000
0 0 0.000000000
0 0 6.579575254
0 0 10.234664927
0 0 6.529543175
0 0 6.311099919
0 0 -1.311546855
0 0 1.221146514
0 0 -1.094361781
0 0 0.503646021
0 0 0.000000000
0 0 -0.000000000
0 0 4.381452141
0 0 5.965350599
0 0 -3.143370354
0 0 1.387969474
0 0 -4.206034714
0 0 1.641161232
0 0 -1.357363660
0 0 0.437161840
0 0 -0.000000000
0 0 0.000000000
0 0 5.363895007
0 0 6.103076899
0 0 -2.986480631
0 0 -0.945259867
0 0 -5.236680986
0 0 0.623994148
0 0 -0.973130385
0 0 0.402079741
0 0 0.000000000
0 0 -0.000000000
0 0 4.953034320
0 0 6.886727204
0 0 -1.790127637
0 0 0.876776907
0 0 -4.834544043
0 0 0.782298433
0 0 -1.384266630
0 0 0.463414413
0 0 -0.000000000
0 0 0.000000000
0 0 5.181191068
0 0 6.044247766
0 0 -3.154379593
0 0 -0.393160589
0 0 -5.032032091
0 0 0.916168889
0 0 -1.114597620
0 0 0.404393817
0 0 0.000000000
0 0 -0.000000000
0 0 4.884893765
0 0 6.656375335
0 0 -1.714991428
0 0 0.472861435
0 0 -4.850693536
0 0 0.515470647
0 0 -1.253857261
0 0 0.443412241
0 0 -0.000000000
0 0 0.000000000
0 0 5.737212907
0 0 6.584893028
0 0 -3.602280308
0 0 -0.122205899
0 0 -5.354623046
0 0 1.411684674
0 0 -1.416983026
0 0 0.488331537
0 0 0.000000000
0 0 -0.000000000
0 0 3.120443407
0 0 6.031221853
0 0 -0.506391098
0 0 0.352148947
0 0 -3.863294072
0 0 -0.502073135
0 0 -0.152806229
0 0 -0.009298650
0 0 -0.000000000
0 0 0.000000000
0 0 0.868832042
0 0 3.742126170
0 0 -0.415131047
0 0 0.314921159
0 0 -1.981012217
0 0 -0.484154802
0 0 0.000314131
0 0 -0.075124505
0 0 0.000000000
VECTORS lamda float
0 0 0.000000000
0 0 0.000000000
0 0 0.000000000
0 0 0.000000000
0 0 0.000000000
0 0 0.000000000
0 0 0.000000000
0 0 0.000000000
0 0 0.000000000
0 0 0.000000000
0 0 0.000000000
0 0 0.065795753
0 0 0.102346649
0 0 0.065295432
0 0 0.063110999
0 0 -0.013115469
0 0 0.012211465
0 0 -0.010943618
0 0 0.005036460
0 0 0.000000000
0 0 0.000000000
0 0 0.043814521
0 0 0.059653506
0 0 -0.031433704
0 0 0.013879695
0 0 -0.042060347
0 0 0.016411612
0 0 -0.013573637
0 0 0.004371618
0 0 0.000000000
0 0 0.000000000
0 0 0.053638950
0 0 0.061030769
0 0 -0.029864806
0 0 -0.009452599
0 0 -0.052366810
0 0 0.006239941
0 0 -0.009731304
0 0 0.004020797
0 0 0.000000000
0 0 0.000000000
0 0 0.049530343
0 0 0.068867272
0 0 -0.017901276
0 0 0.008767769
0 0 -0.048345440
0 0 0.007822984
0 0 -0.013842666
0 0 0.004634144
0 0 0.000000000
0 0 0.000000000
0 0 0.051811911
0 0 0.060442478
0 0 -0.031543796
0 0 -0.003931606
0 0 -0.050320321
0 0 0.009161689
0 0 -0.011145976
0 0 0.004043938
0 0 0.000000000
0 0 0.000000000
0 0 0.048848938
0 0 0.066563753
0 0 -0.017149914
0 0 0.004728614
0 0 -0.048506935
0 0 0.005154706
0 0 -0.012538573
0 0 0.004434122
0 0 0.000000000
0 0 0.000000000
0 0 0.057372129
0 0 0.065848930
0 0 -0.036022803
0 0 -0.001222059
0 0 -0.053546230
0 0 0.014116847
0 0 -0.014169830
0 0 0.004883315
0 0 0.000000000
0 0 0.000000000
0 0 0.031204434
0 0 0.060312219
0 0 -0.005063911
0 0 0.003521489
0 0 -0.038632941
0 0 -0.005020731
0 0 -0.001528062
0 0 -0.000092986
0 0 0.000000000
0 0 0.000000000
0 0 0.008688320
0 0 0.037421262
0 0 -0.004151310
0 0 0.003149212
0 0 -0.019810122
0 0 -0.004841548
0 0 0.000003141
0 0 -0.000751245
0 0 0.000000000
