# vtk DataFile Version 2.0
Hex test
ASCII
DATASET UNSTRUCTURED_GRID
POINTS 784 float
0 0.000000000 0.000000000
0.024034400 0.000000000 0.000000000
0.074656133 0.000000000 0.000000000
0.134643000 0.000000000 0.000000000
0.000000000 0.024034400 0.000000000
0.024034400 0.024034400 0.000000000
0.074656133 0.024034400 0.000000000
0.134643000 0.024034400 0.000000000
0.000000000 0.074656133 0.000000000
0.024034400 0.074656133 0.000000000
0.074656133 0.074656133 0.000000000
0.134643000 0.074656133 0.000000000
0.000000000 0.134643000 0.000000000
0.024034400 0.134643000 0.000000000
0.074656133 0.134643000 0.000000000
0.134643000 0.134643000 0.000000000
0.134643000 0.000000000 0.000000000
0.190079148 0.000000000 0.000000000
0.240277519 0.000000000 0.000000000
0.287857000 0.000000000 0.000000000
0.134643000 0.024034400 0.000000000
0.190079148 0.024034400 0.000000000
0.240277519 0.024034400 0.000000000
0.287857000 0.024034400 0.000000000
0.134643000 0.074656133 0.000000000
0.190079148 0.074656133 0.000000000
0.240277519 0.074656133 0.000000000
0.287857000 0.074656133 0.000000000
0.134643000 0.134643000 0.000000000
0.190079148 0.134643000 0.000000000
0.240277519 0.134643000 0.000000000
0.287857000 0.134643000 0.000000000
0.287857000 0.000000000 0.000000000
0.335000000 0.000000000 0.000000000
0.382143000 0.000000000 0.000000000
0.429286000 0.000000000 0.000000000
0.287857000 0.024034400 0.000000000
0.335000000 0.024034400 0.000000000
0.382143000 0.024034400 0.000000000
0.429286000 0.024034400 0.000000000
0.287857000 0.074656133 0.000000000
0.335000000 0.074656133 0.000000000
0.382143000 0.074656133 0.000000000
0.429286000 0.074656133 0.000000000
0.287857000 0.134643000 0.000000000
0.335000000 0.134643000 0.000000000
0.382143000 0.134643000 0.000000000
0.429286000 0.134643000 0.000000000
0.429286000 0.000000000 0.000000000
0.476428741 0.000000000 0.000000000
0.523571259 0.000000000 0.000000000
0.570714000 0.000000000 0.000000000
0.429286000 0.024034400 0.000000000
0.476428741 0.024034400 0.000000000
0.523571259 0.024034400 0.000000000
0.570714000 0.024034400 0.000000000
0.429286000 0.074656133 0.000000000
0.476428741 0.074656133 0.000000000
0.523571259 0.074656133 0.000000000
0.570714000 0.074656133 0.000000000
0.429286000 0.134643000 0.000000000
0.476428741 0.134643000 0.000000000
0.523571259 0.134643000 0.000000000
0.570714000 0.134643000 0.000000000
0.570714000 0.000000000 0.000000000
0.617857000 0.000000000 0.000000000
0.665000000 0.000000000 0.000000000
0.712143000 0.000000000 0.000000000
0.570714000 0.024034400 0.000000000
0.617857000 0.024034400 0.000000000
0.665000000 0.024034400 0.000000000
0.712143000 0.024034400 0.000000000
0.570714000 0.074656133 0.000000000
0.617857000 0.074656133 0.000000000
0.665000000 0.074656133 0.000000000
0.712143000 0.074656133 0.000000000
0.570714000 0.134643000 0.000000000
0.617857000 0.134643000 0.000000000
0.665000000 0.134643000 0.000000000
0.712143000 0.134643000 0.000000000
0.712143000 0.000000000 0.000000000
0.759722481 0.000000000 0.000000000
0.809920852 0.000000000 0.000000000
0.865357000 0.000000000 0.000000000
0.712143000 0.024034400 0.000000000
0.759722481 0.024034400 0.000000000
0.809920852 0.024034400 0.000000000
0.865357000 0.024034400 0.000000000
0.712143000 0.074656133 0.000000000
0.759722481 0.074656133 0.000000000
0.809920852 0.074656133 0.000000000
0.865357000 0.074656133 0.000000000
0.712143000 0.134643000 0.000000000
0.759722481 0.134643000 0.000000000
0.809920852 0.134643000 0.000000000
0.865357000 0.134643000 0.000000000
0.865357000 0.000000000 0.000000000
0.925344000 0.000000000 0.000000000
0.975965667 0.000000000 0.000000000
1.000000000 0.000000000 0.000000000
0.865357000 0.024034400 0.000000000
0.925344000 0.024034400 0.000000000
0.975965667 0.024034400 0.000000000
1.000000000 0.024034400 0.000000000
0.865357000 0.074656133 0.000000000
0.925344000 0.074656133 0.000000000
0.975965667 0.074656133 0.000000000
1.000000000 0.074656133 0.000000000
0.865357000 0.134643000 0.000000000
0.925344000 0.134643000 0.000000000
0.975965667 0.134643000 0.000000000
1.000000000 0.134643000 0.000000000
0.000000000 0.134643000 0.000000000
0.024034400 0.134643000 0.000000000
0.074656133 0.134643000 0.000000000
0.134643000 0.134643000 0.000000000
0.000000000 0.190079148 0.000000000
0.024034400 0.190079148 0.000000000
0.074656133 0.190079148 0.000000000
0.134643000 0.190079148 0.000000000
0.000000000 0.240277519 0.000000000
0.024034400 0.240277519 0.000000000
0.074656133 0.240277519 0.000000000
0.134643000 0.240277519 0.000000000
0.000000000 0.287857000 0.000000000
0.024034400 0.287857000 0.000000000
0.074656133 0.287857000 0.000000000
0.134643000 0.287857000 0.000000000
0.134643000 0.134643000 0.000000000
0.190079148 0.134643000 0.000000000
0.240277519 0.134643000 0.000000000
0.287857000 0.134643000 0.000000000
0.134643000 0.190079148 0.000000000
0.190079148 0.190079148 0.000000000
0.240277519 0.190079148 0.000000000
0.287857000 0.190079148 0.000000000
0.134643000 0.240277519 0.000000000
0.190079148 0.240277519 0.000000000
0.240277519 0.240277519 0.000000000
0.287857000 0.240277519 0.000000000
0.134643000 0.287857000 0.000000000
0.190079148 0.287857000 0.000000000
0.240277519 0.287857000 0.000000000
0.287857000 0.287857000 0.000000000
0.287857000 0.134643000 0.000000000
0.335000000 0.134643000 0.000000000
0.382143000 0.134643000 0.000000000
0.429286000 0.134643000 0.000000000
0.287857000 0.190079148 0.000000000
0.335000000 0.190079148 0.000000000
0.382143000 0.190079148 0.000000000
0.429286000 0.190079148 0.000000000
0.287857000 0.240277519 0.000000000
0.335000000 0.240277519 0.000000000
0.382143000 0.240277519 0.000000000
0.429286000 0.240277519 0.000000000
0.287857000 0.287857000 0.000000000
0.335000000 0.287857000 0.000000000
0.382143000 0.287857000 0.000000000
0.429286000 0.287857000 0.000000000
0.429286000 0.134643000 0.000000000
0.476428741 0.134643000 0.000000000
0.523571259 0.134643000 0.000000000
0.570714000 0.134643000 0.000000000
0.429286000 0.190079148 0.000000000
0.476428741 0.190079148 0.000000000
0.523571259 0.190079148 0.000000000
0.570714000 0.190079148 0.000000000
0.429286000 0.240277519 0.000000000
0.476428741 0.240277519 0.000000000
0.523571259 0.240277519 0.000000000
0.570714000 0.240277519 0.000000000
0.429286000 0.287857000 0.000000000
0.476428741 0.287857000 0.000000000
0.523571259 0.287857000 0.000000000
0.570714000 0.287857000 0.000000000
0.570714000 0.134643000 0.000000000
0.617857000 0.134643000 0.000000000
0.665000000 0.134643000 0.000000000
0.712143000 0.134643000 0.000000000
0.570714000 0.190079148 0.000000000
0.617857000 0.190079148 0.000000000
0.665000000 0.190079148 0.000000000
0.712143000 0.190079148 0.000000000
0.570714000 0.240277519 0.000000000
0.617857000 0.240277519 0.000000000
0.665000000 0.240277519 0.000000000
0.712143000 0.240277519 0.000000000
0.570714000 0.287857000 0.000000000
0.617857000 0.287857000 0.000000000
0.665000000 0.287857000 0.000000000
0.712143000 0.287857000 0.000000000
0.712143000 0.134643000 0.000000000
0.759722481 0.134643000 0.000000000
0.809920852 0.134643000 0.000000000
0.865357000 0.134643000 0.000000000
0.712143000 0.190079148 0.000000000
0.759722481 0.190079148 0.000000000
0.809920852 0.190079148 0.000000000
0.865357000 0.190079148 0.000000000
0.712143000 0.240277519 0.000000000
0.759722481 0.240277519 0.000000000
0.809920852 0.240277519 0.000000000
0.865357000 0.240277519 0.000000000
0.712143000 0.287857000 0.000000000
0.759722481 0.287857000 0.000000000
0.809920852 0.287857000 0.000000000
0.865357000 0.287857000 0.000000000
0.865357000 0.134643000 0.000000000
0.925344000 0.134643000 0.000000000
0.975965667 0.134643000 0.000000000
1.000000000 0.134643000 0.000000000
0.865357000 0.190079148 0.000000000
0.925344000 0.190079148 0.000000000
0.975965667 0.190079148 0.000000000
1.000000000 0.190079148 0.000000000
0.865357000 0.240277519 0.000000000
0.925344000 0.240277519 0.000000000
0.975965667 0.240277519 0.000000000
1.000000000 0.240277519 0.000000000
0.865357000 0.287857000 0.000000000
0.925344000 0.287857000 0.000000000
0.975965667 0.287857000 0.000000000
1.000000000 0.287857000 0.000000000
0.000000000 0.287857000 0.000000000
0.024034400 0.287857000 0.000000000
0.074656133 0.287857000 0.000000000
0.134643000 0.287857000 0.000000000
0.000000000 0.335000000 0.000000000
0.024034400 0.335000000 0.000000000
0.074656133 0.335000000 0.000000000
0.134643000 0.335000000 0.000000000
0.000000000 0.382143000 0.000000000
0.024034400 0.382143000 0.000000000
0.074656133 0.382143000 0.000000000
0.134643000 0.382143000 0.000000000
0.000000000 0.429286000 0.000000000
0.024034400 0.429286000 0.000000000
0.074656133 0.429286000 0.000000000
0.134643000 0.429286000 0.000000000
0.134643000 0.287857000 0.000000000
0.190079148 0.287857000 0.000000000
0.240277519 0.287857000 0.000000000
0.287857000 0.287857000 0.000000000
0.134643000 0.335000000 0.000000000
0.190079148 0.335000000 0.000000000
0.240277519 0.335000000 0.000000000
0.287857000 0.335000000 0.000000000
0.134643000 0.382143000 0.000000000
0.190079148 0.382143000 0.000000000
0.240277519 0.382143000 0.000000000
0.287857000 0.382143000 0.000000000
0.134643000 0.429286000 0.000000000
0.190079148 0.429286000 0.000000000
0.240277519 0.429286000 0.000000000
0.287857000 0.429286000 0.000000000
0.287857000 0.287857000 0.000000000
0.335000000 0.287857000 0.000000000
0.382143000 0.287857000 0.000000000
0.429286000 0.287857000 0.000000000
0.287857000 0.335000000 0.000000000
0.335000000 0.335000000 0.000000000
0.382143000 0.335000000 0.000000000
0.429286000 0.335000000 0.000000000
0.287857000 0.382143000 0.000000000
0.335000000 0.382143000 0.000000000
0.382143000 0.382143000 0.000000000
0.429286000 0.382143000 0.000000000
0.287857000 0.429286000 0.000000000
0.335000000 0.429286000 0.000000000
0.382143000 0.429286000 0.000000000
0.429286000 0.429286000 0.000000000
0.429286000 0.287857000 0.000000000
0.476428741 0.287857000 0.000000000
0.523571259 0.287857000 0.000000000
[...]
POINT_DATA 784
VECTORS y float
0.000000000 0 0
0.703703704 0 0
0.962962963 0 0
1.000000000 0 0
0.000000000 0 0
0.292229553 0 0
0.471322146 0 0
0.555828806 0 0
0.000000000 0 0
0.145433409 0 0
0.378626768 0 0
0.576618965 0 0
0.000000000 0 0
0.126342269 0 0
0.441148019 0 0
0.742403058 0 0
1.000000000 0 0
1.000000037 0 0
1.000000296 0 0
1.000001000 0 0
0.555828806 0 0
0.566771950 0 0
0.535060540 0 0
0.494074899 0 0
0.576618965 0 0
0.647412017 0 0
0.622863537 0 0
0.565793959 0 0
0.742403058 0 0
0.875220251 0 0
0.873221506 0 0
0.817155248 0 0
1.000001000 0 0
0.993827481 0 0
0.950617519 0 0
0.833334000 0 0
0.494074899 0 0
0.467137873 0 0
0.437345614 0 0
0.377736784 0 0
0.565793959 0 0
0.523993558 0 0
0.485131578 0 0
0.421847036 0 0
0.817155248 0 0
0.769232377 0 0
0.717520549 0 0
0.631550254 0 0
0.833334000 0 0
0.623457074 0 0
0.376543259 0 0
0.166667000 0 0
0.377736784 0 0
0.272477524 0 0
0.150245092 0 0
0.050844325 0 0
0.421847036 0 0
0.317292626 0 0
0.196675271 0 0
0.095715468 0 0
0.631550254 0 0
0.493010420 0 0
0.332227885 0 0
0.191688518 0 0
0.166667000 0 0
0.049382815 0 0
0.006172852 0 0
0.000000000 0 0
0.050844325 0 0
0.003414035 0 0
-0.005569454 0 0
-0.000295765 0 0
0.095715468 0 0
0.040744860 0 0
0.020539347 0 0
0.014485871 0 0
0.191688518 0 0
0.103393440 0 0
0.057408477 0 0
0.033315274 0 0
0.000000000 0 0
0.000000000 0 0
0.000000000 0 0
0.000000000 0 0
-0.000295765 0 0
-0.000001904 0 0
-0.004114838 0 0
-0.007108955 0 0
0.014485871 0 0
0.006226423 0 0
-0.003576971 0 0
-0.010007260 0 0
0.033315274 0 0
0.014456636 0 0
-0.000779622 0 0
-0.010244460 0 0
0.000000000 0 0
0.000000000 0 0
0.000000000 0 0
0.000000000 0 0
-0.007108955 0 0
-0.005157820 0 0
-0.001231690 0 0
0.000000000 0 0
-0.010007260 0 0
-0.009632976 0 0
-0.004965047 0 0
0.000000000 0 0
-0.010244460 0 0
-0.012436301 0 0
-0.008443036 0 0
0.000000000 0 0
0.000000000 0 0
0.126342269 0 0
0.441148019 0 0
0.742403058 0 0
0.000000000 0 0
0.121795569 0 0
0.462714483 0 0
0.799719206 0 0
0.000000000 0 0
0.113883835 0 0
0.437386743 0 0
0.761127438 0 0
0.000000000 0 0
0.108509898 0 0
0.406782355 0 0
0.705692478 0 0
0.742403058 0 0
0.875220251 0 0
0.873221506 0 0
0.817155248 0 0
0.799719206 0 0
0.960685831 0 0
0.977145780 0 0
0.931543465 0 0
0.761127438 0 0
0.923055637 0 0
0.950445662 0 0
0.917902232 0 0
0.705692478 0 0
0.858764968 0 0
0.890128899 0 0
0.866562794 0 0
0.817155248 0 0
0.769232377 0 0
0.717520549 0 0
0.631550254 0 0
0.931543465 0 0
0.887536493 0 0
0.833638787 0 0
0.739577567 0 0
0.917902232 0 0
0.882967973 0 0
0.834939078 0 0
0.746049638 0 0
0.866562794 0 0
0.839432735 0 0
0.798454850 0 0
0.717932733 0 0
0.631550254 0 0
0.493010420 0 0
0.332227885 0 0
0.191688518 0 0
0.739577567 0 0
0.587566536 0 0
0.409767399 0 0
0.250828509 0 0
0.746049638 0 0
0.600210271 0 0
0.428038669 0 0
0.271829016 0 0
0.717932733 0 0
0.583018328 0 0
0.422256555 0 0
0.275040470 0 0
0.191688518 0 0
0.103393440 0 0
0.057408477 0 0
0.033315274 0 0
0.250828509 0 0
0.144795686 0 0
0.083306401 0 0
0.047395753 0 0
0.271829016 0 0
0.164058680 0 0
0.097938552 0 0
0.056862662 0 0
0.275040470 0 0
0.171707184 0 0
0.106369560 0 0
0.064084280 0 0
0.033315274 0 0
0.014456636 0 0
-0.000779622 0 0
-0.010244460 0 0
0.047395753 0 0
0.021334242 0 0
0.002334226 0 0
-0.009156518 0 0
0.056862662 0 0
0.027000377 0 0
0.005622518 0 0
-0.007224774 0 0
0.064084280 0 0
0.032470035 0 0
0.009393435 0 0
-0.004716956 0 0
-0.010244460 0 0
-0.012436301 0 0
-0.008443036 0 0
0.000000000 0 0
-0.009156518 0 0
-0.012908914 0 0
-0.009568621 0 0
0.000000000 0 0
-0.007224774 0 0
-0.011713055 0 0
-0.008884750 0 0
0.000000000 0 0
-0.004716956 0 0
-0.009841236 0 0
-0.007594371 0 0
0.000000000 0 0
0.000000000 0 0
0.108509898 0 0
0.406782355 0 0
0.705692478 0 0
0.000000000 0 0
0.109804218 0 0
0.402636896 0 0
0.694442505 0 0
0.000000000 0 0
0.114806200 0 0
0.417156967 0 0
0.716265933 0 0
0.000000000 0 0
0.118782828 0 0
0.432667150 0 0
0.742014813 0 0
0.705692478 0 0
0.858764968 0 0
0.890128899 0 0
0.866562794 0 0
0.694442505 0 0
0.842863532 0 0
0.872335913 0 0
0.848993104 0 0
0.716265933 0 0
0.864862289 0 0
0.889739918 0 0
0.861207818 0 0
0.742014813 0 0
0.892886657 0 0
0.914146791 0 0
0.880358238 0 0
0.866562794 0 0
0.839432735 0 0
0.798454850 0 0
0.717932733 0 0
0.848993104 0 0
0.823602690 0 0
0.785470187 0 0
0.708535212 0 0
0.861207818 0 0
0.833215183 0 0
0.794273334 0 0
0.716533772 0 0
0.880358238 0 0
0.848773531 0 0
0.807403183 0 0
0.726947178 0 0
0.717932733 0 0
0.583018328 0 0
0.422256555 0 0
0.275040470 0 0
0.708535212 0 0
0.577576880 0 0
0.420732997 0 0
0.276980798 0 0
0.716533772 0 0
0.583510641 0 0
0.424169348 0 0
0.278837887 0 0
0.726947178 0 0
0.589953781 0 0
0.426364037 0 0
0.277967105 0 0
0.275040470 0 0
0.171707184 0 0
0.106369560 0 0
0.064084280 0 0
0.276980798 0 0
0.176283240 0 0
0.112546726 0 0
0.070663302 0 0
0.278837887 0 0
0.178398159 0 0
0.115948251 0 0
0.075140089 0 0
0.277967105 0 0
0.176680528 0 0
0.114935005 0 0
0.075289425 0 0
0.064084280 0 0
0.032470035 0 0
0.009393435 0 0
-0.004716956 0 0
0.070663302 0 0
0.038227129 0 0
0.013640934 0 0
-0.001990461 0 0
0.075140089 0 0
0.042631260 0 0
0.017102089 0 0
0.000238542 0 0
0.075289425 0 0
0.043510951 0 0
0.018199752 0 0
0.001164216 0 0
-0.004716956 0 0
-0.009841236 0 0
-0.007594371 0 0
0.000000000 0 0
-0.001990461 0 0
-0.008150831 0 0
-0.006678400 0 0
0.000000000 0 0
0.000238542 0 0
-0.006958645 0 0
-0.006229677 0 0
0.000000000 0 0
0.001164216 0 0
-0.006446335 0 0
-0.006119012 0 0
0.000000000 0 0
0.000000000 0 0
0.118782828 0 0
0.432667150 0 0
0.742014813 0 0
0.000000000 0 0
0.118289036 0 0
0.435627041 0 0
0.749052868 0 0
0.000000000 0 0
0.115030590 0 0
0.429035628 0 0
0.740794718 0 0
0.000000000 0 0
0.112001235 0 0
0.420026932 0 0
0.727166558 0 0
0.742014813 0 0
0.892886657 0 0
0.914146791 0 0
0.880358238 0 0
0.749052868 0 0
0.901978296 0 0
0.923309018 0 0
0.888323165 0 0
0.740794718 0 0
0.894846453 0 0
0.918767119 0 0
0.885891477 0 0
0.727166558 0 0
0.881116589 0 0
0.908008231 0 0
0.878579585 0 0
0.880358238 0 0
0.848773531 0 0
0.807403183 0 0
0.726947178 0 0
0.888323165 0 0
0.854897084 0 0
0.811301454 0 0
0.728405155 0 0
0.885891477 0 0
0.852670619 0 0
0.808022473 0 0
0.723981280 0 0
0.878579585 0 0
0.847294959 0 0
0.803523396 0 0
0.720360094 0 0
0.726947178 0 0
0.589953781 0 0
0.426364037 0 0
0.277967105 0 0
0.728405155 0 0
0.588946501 0 0
0.423142244 0 0
0.273078515 0 0
0.723981280 0 0
0.584153739 0 0
0.418437089 0 0
0.268300971 0 0
0.720360094 0 0
0.582146465 0 0
0.418208446 0 0
0.269118024 0 0
0.277967105 0 0
0.176680528 0 0
0.114935005 0 0
0.075289425 0 0
0.273078515 0 0
0.170915187 0 0
0.109107673 0 0
0.070185062 0 0
0.268300971 0 0
0.165512139 0 0
0.103026408 0 0
0.064096641 0 0
0.269118024 0 0
0.166037642 0 0
0.102491179 0 0
0.062592769 0 0
0.075289425 0 0
0.043510951 0 0
0.018199752 0 0
0.001164216 0 0
0.070185062 0 0
0.039799933 0 0
0.016098906 0 0
0.000352070 0 0
0.064096641 0 0
0.034852767 0 0
0.012933073 0 0
-0.001147108 0 0
0.062592769 0 0
0.033129221 0 0
0.011577907 0 0
-0.001911191 0 0
0.001164216 0 0
-0.006446335 0 0
-0.006119012 0 0
0.000000000 0 0
0.000352070 0 0
-0.006671871 0 0
-0.006209802 0 0
0.000000000 0 0
-0.001147108 0 0
-0.007198465 0 0
-0.006335814 0 0
0.000000000 0 0
-0.001911191 0 0
-0.007465639 0 0
-0.006323399 0 0
0.000000000 0 0
0.000000000 0 0
0.112001235 0 0
0.420026932 0 0
0.727166558 0 0
0.000000000 0 0
0.111533414 0 0
0.414718331 0 0
0.717033782 0 0
0.000000000 0 0
0.113313231 0 0
0.415159838 0 0
0.715023694 0 0
0.000000000 0 0
0.116365473 0 0
0.422384808 0 0
0.724702872 0 0
0.727166558 0 0
0.881116589 0 0
0.908008231 0 0
0.878579585 0 0
0.717033782 0 0
0.869582219 0 0
0.897961714 0 0
0.871393277 0 0
0.715023694 0 0
0.865712051 0 0
0.893327572 0 0
0.867295819 0 0
0.724702872 0 0
0.874142868 0 0
0.898248035 0 0
0.868739836 0 0
0.878579585 0 0
0.847294959 0 0
0.803523396 0 0
0.720360094 0 0
0.871393277 0 0
0.843094976 0 0
0.802274515 0 0
0.722136633 0 0
0.867295819 0 0
0.840893086 0 0
0.802800005 0 0
0.725547916 0 0
0.868739836 0 0
0.840635749 0 0
0.802137178 0 0
0.724741461 0 0
0.720360094 0 0
0.582146465 0 0
0.418208446 0 0
0.269118024 0 0
0.722136633 0 0
0.587011301 0 0
0.425730149 0 0
0.278249978 0 0
0.725547916 0 0
0.592898174 0 0
0.433532894 0 0
0.287364141 0 0
0.724741461 0 0
0.591472663 0 0
0.431461340 0 0
0.285364571 0 0
0.269118024 0 0
0.166037642 0 0
0.102491179 0 0
0.062592769 0 0
0.278249978 0 0
0.175296893 0 0
0.110674791 0 0
0.068956800 0 0
0.287364141 0 0
0.185051062 0 0
0.120241694 0 0
0.077331087 0 0
0.285364571 0 0
0.184300259 0 0
0.121229182 0 0
0.079572736 0 0
0.062592769 0 0
0.033129221 0 0
0.011577907 0 0
-0.001911191 0 0
0.068956800 0 0
0.037383919 0 0
0.013868735 0 0
-0.001008315 0 0
0.077331087 0 0
0.043550937 0 0
0.017479644 0 0
0.000532240 0 0
0.079572736 0 0
0.045859210 0 0
0.019044395 0 0
0.001190936 0 0
-0.001911191 0 0
-0.007465639 0 0
-0.006323399 0 0
0.000000000 0 0
-0.001008315 0 0
-0.007111002 0 0
-0.006079949 0 0
0.000000000 0 0
0.000532240 0 0
-0.006564519 0 0
-0.005837036 0 0
0.000000000 0 0
0.001190936 0 0
-0.006454242 0 0
-0.005907269 0 0
0.000000000 0 0
0.000000000 0 0
0.116365473 0 0
0.422384808 0 0
0.724702872 0 0
0.000000000 0 0
0.119257965 0 0
0.434842202 0 0
0.745245399 0 0
0.000000000 0 0
0.118729496 0 0
0.440642598 0 0
0.758260354 0 0
0.000000000 0 0
0.111061915 0 0
0.425312192 0 0
0.740964206 0 0
0.724702872 0 0
0.874142868 0 0
0.898248035 0 0
0.868739836 0 0
0.745245399 0 0
0.895141021 0 0
0.913926903 0 0
0.877181117 0 0
0.758260354 0 0
0.911494125 0 0
0.929816097 0 0
0.890088151 0 0
0.740964206 0 0
0.901619333 0 0
0.932429113 0 0
0.903932610 0 0
0.868739836 0 0
0.840635749 0 0
0.802137178 0 0
0.724741461 0 0
0.877181117 0 0
0.842996079 0 0
0.799523307 0 0
0.717428650 0 0
0.890088151 0 0
0.851555109 0 0
0.802996866 0 0
0.715576311 0 0
0.903932610 0 0
0.870620531 0 0
0.822796286 0 0
0.734715125 0 0
0.724741461 0 0
0.591472663 0 0
0.431461340 0 0
0.285364571 0 0
0.717428650 0 0
0.579278920 0 0
0.415245618 0 0
0.267401173 0 0
0.715576311 0 0
0.572375928 0 0
0.404158663 0 0
0.253607224 0 0
0.734715125 0 0
0.591701240 0 0
0.423358881 0 0
0.270361843 0 0
0.285364571 0 0
0.184300259 0 0
0.121229182 0 0
0.079572736 0 0
0.267401173 0 0
0.167787668 0 0
0.108326505 0 0
0.070908703 0 0
0.253607224 0 0
0.153228871 0 0
0.094830894 0 0
0.060045319 0 0
0.270361843 0 0
0.164082521 0 0
0.098691536 0 0
0.059058754 0 0
0.079572736 0 0
0.045859210 0 0
0.019044395 0 0
0.001190936 0 0
0.070908703 0 0
0.040771500 0 0
0.016537108 0 0
0.000173953 0 0
0.060045319 0 0
0.033685861 0 0
0.013293335 0 0
-0.000409716 0 0
0.059058754 0 0
0.032234174 0 0
0.013988987 0 0
0.002274641 0 0
0.001190936 0 0
-0.006454242 0 0
-0.005907269 0 0
0.000000000 0 0
0.000173953 0 0
-0.007016057 0 0
-0.006397130 0 0
0.000000000 0 0
-0.000409716 0 0
-0.006917175 0 0
-0.006588605 0 0
0.000000000 0 0
0.002274641 0 0
-0.004432642 0 0
-0.005557549 0 0
0.000000000 0 0
0.000000000 0 0
0.111061915 0 0
0.425312192 0 0
0.740964206 0 0
0.000000000 0 0
0.092565802 0 0
0.379107825 0 0
0.679355535 0 0
0.000000000 0 0
0.059667832 0 0
0.311211386 0 0
0.594562514 0 0
0.000000000 0 0
0.008823479 0 0
0.235535735 0 0
0.516496348 0 0
0.740964206 0 0
0.901619333 0 0
0.932429113 0 0
0.903932610 0 0
0.679355535 0 0
0.852120013 0 0
0.912541687 0 0
0.914842391 0 0
0.594562514 0 0
0.782349079 0 0
0.877985323 0 0
0.917581348 0 0
0.516496348 0 0
0.719846362 0 0
0.840853928 0 0
0.906568482 0 0
0.903932610 0 0
0.870620531 0 0
0.822796286 0 0
0.734715125 0 0
0.914842391 0 0
0.900944446 0 0
0.863572447 0 0
0.783151437 0 0
0.917581348 0 0
0.929064047 0 0
0.907632883 0 0
0.840303971 0 0
0.906568482 0 0
0.937960940 0 0
0.931697611 0 0
0.878366098 0 0
0.734715125 0 0
0.591701240 0 0
0.423358881 0 0
0.270361843 0 0
0.783151437 0 0
0.649208110 0 0
0.487676093 0 0
0.333590539 0 0
0.840303971 0 0
0.720919142 0 0
0.570628322 0 0
0.417407236 0 0
0.878366098 0 0
0.773872384 0 0
0.635405129 0 0
0.485471697 0 0
0.270361843 0 0
0.164082521 0 0
0.098691536 0 0
0.059058754 0 0
0.333590539 0 0
0.214941109 0 0
0.131535610 0 0
0.076136214 0 0
0.417407236 0 0
0.284934324 0 0
0.179702963 0 0
0.103909466 0 0
0.485471697 0 0
0.344325484 0 0
0.223211441 0 0
0.131121144 0 0
0.059058754 0 0
0.032234174 0 0
0.013988987 0 0
0.002274641 0 0
0.076136214 0 0
0.041661712 0 0
0.021657590 0 0
0.009825916 0 0
0.103909466 0 0
0.057667628 0 0
0.032763217 0 0
0.018899622 0 0
0.131121144 0 0
0.073564412 0 0
0.042127559 0 0
0.024915440 0 0
0.002274641 0 0
-0.004432642 0 0
-0.005557549 0 0
0.000000000 0 0
0.009825916 0 0
0.001335939 0 0
-0.002774401 0 0
0.000000000 0 0
0.018899622 0 0
0.007980665 0 0
0.000712068 0 0
0.000000000 0 0
0.024915440 0 0
0.012267070 0 0
0.003458506 0 0
0.000000000 0 0
VECTORS u float
-0.000000000 0 0
0.000000000 0 0
0.000000000 0 0
-0.000000000 0 0
0.000000000 0 0
3.343460853 0 0
5.017614757 0 0
5.480641944 0 0
0.000000000 0 0
4.123611049 0 0
6.049095016 0 0
6.330806538 0 0
-0.000000000 0 0
3.809656994 0 0
5.394601476 0 0
5.272964866 0 0
-0.000000000 0 0
-0.000000000 0 0
0.000000000 0 0
0.000000000 0 0
5.480641944 0 0
5.179943782 0 0
4.519811539 0 0
3.893756907 0 0
6.330806538 0 0
5.539046790 0 0
4.307907670 0 0
3.287425083 0 0
5.272964866 0 0
4.008509170 0 0
2.347439144 0 0
1.081592554 0 0
0.000000000 0 0
0.000000000 0 0
0.000000000 0 0
-0.000000000 0 0
3.893756907 0 0
3.571594832 0 0
3.328385712 0 0
2.815493220 0 0
3.287425083 0 0
2.921157600 0 0
2.826757200 0 0
2.415397524 0 0
1.081592554 0 0
0.750479376 0 0
0.884332305 0 0
0.761059401 0 0
-0.000000000 0 0
-0.000000000 0 0
-0.000000000 0 0
0.000000000 0 0
2.815493220 0 0
1.821901916 0 0
0.687096611 0 0
-0.111815899 0 0
2.415397524 0 0
1.310211137 0 0
-0.017830251 0 0
-0.885796742 0 0
0.761059401 0 0
-0.099365988 0 0
-1.208718885 0 0
-1.836706526 0 0
0.000000000 0 0
0.000000000 0 0
0.000000000 0 0
0.000000000 0 0
-0.111815899 0 0
-0.246850313 0 0
0.013509263 0 0
0.251658072 0 0
-0.885796742 0 0
-0.827443377 0 0
-0.243263190 0 0
0.249565581 0 0
-1.836706526 0 0
-1.489075016 0 0
-0.615711355 0 0
0.097459989 0 0
0.000000000 0 0
-0.000000000 0 0
-0.000000000 0 0
-0.000000000 0 0
0.251658072 0 0
0.165258066 0 0
-0.086964001 0 0
-0.231014326 0 0
0.249565581 0 0
0.206165974 0 0
-0.129132039 0 0
-0.339696748 0 0
0.097459989 0 0
0.157372575 0 0
-0.157625491 0 0
-0.376329460 0 0
-0.000000000 0 0
0.000000000 0 0
0.000000000 0 0
-0.000000000 0 0
-0.231014326 0 0
-0.093855020 0 0
0.093729782 0 0
0.000000000 0 0
-0.339696748 0 0
-0.154944732 0 0
0.111508879 0 0
0.000000000 0 0
-0.376329460 0 0
-0.185216839 0 0
0.098517917 0 0
-0.000000000 0 0
-0.000000000 0 0
3.809656994 0 0
5.394601476 0 0
5.272964866 0 0
-0.000000000 0 0
3.600808291 0 0
4.934247290 0 0
4.531855067 0 0
-0.000000000 0 0
3.616294239 0 0
4.867947340 0 0
4.341198665 0 0
0.000000000 0 0
3.705346891 0 0
4.975566621 0 0
4.436975717 0 0
5.272964866 0 0
4.008509170 0 0
2.347439144 0 0
1.081592554 0 0
4.531855067 0 0
2.977219406 0 0
1.062109169 0 0
-0.369659052 0 0
4.341198665 0 0
2.664833066 0 0
0.637846202 0 0
-0.898222121 0 0
4.436975717 0 0
2.748692442 0 0
0.701131503 0 0
-0.882486966 0 0
1.081592554 0 0
0.750479376 0 0
0.884332305 0 0
0.761059401 0 0
-0.369659052 0 0
-0.741158651 0 0
-0.543008336 0 0
-0.532715918 0 0
-0.898222121 0 0
-1.364489026 0 0
-1.232693652 0 0
-1.237232368 0 0
-0.882486966 0 0
-1.432751375 0 0
-1.395487146 0 0
-1.470329661 0 0
0.761059401 0 0
-0.099365988 0 0
-1.208718885 0 0
-1.836706526 0 0
-0.532715918 0 0
-1.221930883 0 0
-2.138878609 0 0
-2.565925427 0 0
-1.237232368 0 0
-1.875778573 0 0
-2.699120568 0 0
-3.021323750 0 0
-1.470329661 0 0
-2.130008036 0 0
-2.939627433 0 0
-3.237387296 0 0
-1.836706526 0 0
-1.489075016 0 0
-0.615711355 0 0
0.097459989 0 0
-2.565925427 0 0
-2.021691202 0 0
-0.969804987 0 0
-0.110148954 0 0
-3.021323750 0 0
-2.385857361 0 0
-1.253803936 0 0
-0.315649797 0 0
-3.237387296 0 0
-2.584789099 0 0
-1.436542388 0 0
-0.470658716 0 0
0.097459989 0 0
0.157372575 0 0
-0.157625491 0 0
-0.376329460 0 0
-0.110148954 0 0
0.053612982 0 0
-0.197319995 0 0
-0.385530824 0 0
-0.315649797 0 0
-0.070021699 0 0
-0.248112921 0 0
-0.389256981 0 0
-0.470658716 0 0
-0.178353512 0 0
-0.303656034 0 0
-0.403798574 0 0
-0.376329460 0 0
-0.185216839 0 0
0.098517917 0 0
-0.000000000 0 0
-0.385530824 0 0
-0.189171137 0 0
0.091336287 0 0
-0.000000000 0 0
-0.389256981 0 0
-0.181515439 0 0
0.092137809 0 0
0.000000000 0 0
-0.403798574 0 0
-0.179509050 0 0
0.094495195 0 0
0.000000000 0 0
0.000000000 0 0
3.705346891 0 0
4.975566621 0 0
4.436975717 0 0
0.000000000 0 0
3.747411087 0 0
5.073526041 0 0
4.590415071 0 0
-0.000000000 0 0
3.742797270 0 0
5.124470087 0 0
4.713775989 0 0
-0.000000000 0 0
3.722028698 0 0
5.127599341 0 0
4.754565933 0 0
4.436975717 0 0
2.748692442 0 0
0.701131503 0 0
-0.882486966 0 0
4.590415071 0 0
2.944631683 0 0
0.920696694 0 0
-0.662387440 0 0
4.713775989 0 0
3.122463608 0 0
1.134281729 0 0
-0.424031434 0 0
4.754565933 0 0
3.190492719 0 0
1.221876920 0 0
-0.315070323 0 0
-0.882486966 0 0
-1.432751375 0 0
-1.395487146 0 0
-1.470329661 0 0
-0.662387440 0 0
-1.237075070 0 0
-1.241643248 0 0
-1.365826319 0 0
-0.424031434 0 0
-0.980148534 0 0
-0.979382051 0 0
-1.121455917 0 0
-0.315070323 0 0
-0.842549916 0 0
-0.816414545 0 0
-0.950930740 0 0
-1.470329661 0 0
-2.130008036 0 0
-2.939627433 0 0
-3.237387296 0 0
-1.365826319 0 0
-2.073672539 0 0
-2.926491881 0 0
-3.259908408 0 0
-1.121455917 0 0
-1.875646687 0 0
-2.789447917 0 0
-3.179905969 0 0
-0.950930740 0 0
-1.724759351 0 0
-2.674139602 0 0
-3.099705586 0 0
-3.237387296 0 0
-2.584789099 0 0
-1.436542388 0 0
-0.470658716 0 0
-3.259908408 0 0
-2.633264243 0 0
-1.500772904 0 0
-0.540365949 0 0
-3.179905969 0 0
-2.592310743 0 0
-1.484925806 0 0
-0.544258150 0 0
-3.099705586 0 0
-2.534518829 0 0
-1.441349827 0 0
-0.515396122 0 0
-0.470658716 0 0
-0.178353512 0 0
-0.303656034 0 0
-0.403798574 0 0
-0.540365949 0 0
-0.243604540 0 0
-0.356572660 0 0
-0.438983610 0 0
-0.544258150 0 0
-0.267598112 0 0
-0.395373669 0 0
-0.478795793 0 0
-0.515396122 0 0
-0.259557625 0 0
-0.407541527 0 0
-0.500756291 0 0
-0.403798574 0 0
-0.179509050 0 0
0.094495195 0 0
0.000000000 0 0
-0.438983610 0 0
-0.194994663 0 0
0.093459679 0 0
0.000000000 0 0
-0.478795793 0 0
-0.218147205 0 0
0.089999718 0 0
0.000000000 0 0
-0.500756291 0 0
-0.233725026 0 0
0.086562283 0 0
-0.000000000 0 0
-0.000000000 0 0
3.722028698 0 0
5.127599341 0 0
4.754565933 0 0
-0.000000000 0 0
3.709210292 0 0
5.087671637 0 0
4.683851680 0 0
0.000000000 0 0
3.702790999 0 0
5.031674126 0 0
4.566972863 0 0
0.000000000 0 0
3.694801450 0 0
4.992151188 0 0
4.492828496 0 0
4.754565933 0 0
3.190492719 0 0
1.221876920 0 0
-0.315070323 0 0
4.683851680 0 0
3.094683035 0 0
1.110993968 0 0
-0.427923902 0 0
4.566972863 0 0
2.931647170 0 0
0.919236335 0 0
-0.634085511 0 0
4.492828496 0 0
2.835657275 0 0
0.811728897 0 0
-0.749816843 0 0
-0.315070323 0 0
-0.842549916 0 0
-0.816414545 0 0
-0.950930740 0 0
-0.427923902 0 0
-0.942822872 0 0
-0.894627003 0 0
-1.004304864 0 0
-0.634085511 0 0
-1.151375402 0 0
-1.092610458 0 0
-1.176999508 0 0
-0.749816843 0 0
-1.276580993 0 0
-1.223131224 0 0
-1.300777676 0 0
-0.950930740 0 0
-1.724759351 0 0
-2.674139602 0 0
-3.099705586 0 0
-1.004304864 0 0
-1.755988197 0 0
-2.686467946 0 0
-3.095698421 0 0
-1.176999508 0 0
-1.888911880 0 0
-2.773365141 0 0
-3.140537621 0 0
-1.300777676 0 0
-1.989257845 0 0
-2.842020296 0 0
-3.180941774 0 0
-3.099705586 0 0
-2.534518829 0 0
-1.441349827 0 0
-0.515396122 0 0
-3.095698421 0 0
-2.516526930 0 0
-1.413371824 0 0
-0.483544343 0 0
-3.140537621 0 0
-2.531168114 0 0
-1.408236216 0 0
-0.465281978 0 0
-3.180941774 0 0
-2.555323616 0 0
-1.424165538 0 0
-0.473891858 0 0
-0.515396122 0 0
-0.259557625 0 0
-0.407541527 0 0
-0.500756291 0 0
-0.483544343 0 0
-0.231136733 0 0
-0.387369503 0 0
-0.490243812 0 0
-0.465281978 0 0
-0.203710958 0 0
-0.356395083 0 0
-0.464071468 0 0
-0.473891858 0 0
-0.201086072 0 0
-0.342966517 0 0
-0.446909773 0 0
-0.500756291 0 0
-0.233725026 0 0
0.086562283 0 0
-0.000000000 0 0
-0.490243812 0 0
-0.231140895 0 0
0.085035333 0 0
-0.000000000 0 0
-0.464071468 0 0