# vtk DataFile Version 2.0
Square plate test
ASCII
DATASET UNSTRUCTURED_GRID
POINTS 100 float
0 0.000000000 0
0.005000000 0.000000000 0
0.146428571 0.000000000 0
0.287857143 0.000000000 0
0.429285714 0.000000000 0
0.570714286 0.000000000 0
0.712142857 0.000000000 0
0.853571429 0.000000000 0
0.995000000 0.000000000 0
1.000000000 0.000000000 0
0.000000000 0.005000000 0
0.005000000 0.005000000 0
0.146428571 0.005000000 0
0.287857143 0.005000000 0
0.429285714 0.005000000 0
0.570714286 0.005000000 0
0.712142857 0.005000000 0
0.853571429 0.005000000 0
0.995000000 0.005000000 0
1.000000000 0.005000000 0
0.000000000 0.146428571 0
0.005000000 0.146428571 0
0.146428571 0.146428571 0
0.287857143 0.146428571 0
0.429285714 0.146428571 0
0.570714286 0.146428571 0
0.712142857 0.146428571 0
0.853571429 0.146428571 0
0.995000000 0.146428571 0
1.000000000 0.146428571 0
0.000000000 0.287857143 0
0.005000000 0.287857143 0
0.146428571 0.287857143 0
0.287857143 0.287857143 0
0.429285714 0.287857143 0
0.570714286 0.287857143 0
0.712142857 0.287857143 0
0.853571429 0.287857143 0
0.995000000 0.287857143 0
1.000000000 0.287857143 0
0.000000000 0.429285714 0
0.005000000 0.429285714 0
0.146428571 0.429285714 0
0.287857143 0.429285714 0
0.429285714 0.429285714 0
0.570714286 0.429285714 0
0.712142857 0.429285714 0
0.853571429 0.429285714 0
0.995000000 0.429285714 0
1.000000000 0.429285714 0
0.000000000 0.570714286 0
0.005000000 0.570714286 0
0.146428571 0.570714286 0
0.287857143 0.570714286 0
0.429285714 0.570714286 0
0.570714286 0.570714286 0
0.712142857 0.570714286 0
0.853571429 0.570714286 0
0.995000000 0.570714286 0
1.000000000 0.570714286 0
0.000000000 0.712142857 0
0.005000000 0.712142857 0
0.146428571 0.712142857 0
0.287857143 0.712142857 0
0.429285714 0.712142857 0
0.570714286 0.712142857 0
0.712142857 0.712142857 0
0.853571429 0.712142857 0
0.995000000 0.712142857 0
1.000000000 0.712142857 0
0.000000000 0.853571429 0
0.005000000 0.853571429 0
0.146428571 0.853571429 0
0.287857143 0.853571429 0
0.429285714 0.853571429 0
0.570714286 0.853571429 0
0.712142857 0.853571429 0
0.853571429 0.853571429 0
0.995000000 0.853571429 0
1.000000000 0.853571429 0
0.000000000 0.995000000 0
0.005000000 0.995000000 0
0.146428571 0.995000000 0
0.287857143 0.995000000 0
0.429285714 0.995000000 0
0.570714286 0.995000000 0
0.712142857 0.995000000 0
0.853571429 0.995000000 0
0.995000000 0.995000000 0
1.000000000 0.995000000 0
0.000000000 1.000000000 0
0.005000000 1.000000000 0
0.146428571 1.000000000 0
0.287857143 1.000000000 0
0.429285714 1.000000000 0
0.570714286 1.000000000 0
0.712142857 1.000000000 0
0.853571429 1.000000000 0
0.995000000 1.000000000 0
1.000000000 1.000000000 0

CELLS 81 405
4 0 1 11 10
4 1 2 12 11
4 2 3 13 12
4 3 4 14 13
4 4 5 15 14
4 5 6 16 15
4 6 7 17 16
4 7 8 18 17
4 8 9 19 18
4 10 11 21 20
4 11 12 22 21
4 12 13 23 22
4 13 14 24 23
4 14 15 25 24
4 15 16 26 25
4 16 17 27 26
4 17 18 28 27
4 18 19 29 28
4 20 21 31 30
4 21 22 32 31
4 22 23 33 32
4 23 24 34 33
4 24 25 35 34
4 25 26 36 35
4 26 27 37 36
4 27 28 38 37
4 28 29 39 38
4 30 31 41 40
4 31 32 42 41
4 32 33 43 42
4 33 34 44 43
4 34 35 45 44
4 35 36 46 45
4 36 37 47 46
4 37 38 48 47
4 38 39 49 48
4 40 41 51 50
4 41 42 52 51
4 42 43 53 52
4 43 44 54 53
4 44 45 55 54
4 45 46 56 55
4 46 47 57 56
4 47 48 58 57
4 48 49 59 58
4 50 51 61 60
4 51 52 62 61
4 52 53 63 62
4 53 54 64 63
4 54 55 65 64
4 55 56 66 65
4 56 57 67 66
4 57 58 68 67
4 58 59 69 68
4 60 61 71 70
4 61 62 72 71
4 62 63 73 72
4 63 64 74 73
4 64 65 75 74
4 65 66 76 75
4 66 67 77 76
4 67 68 78 77
4 68 69 79 78
4 70 71 81 80
4 71 72 82 81
4 72 73 83 82
4 73 74 84 83
4 74 75 85 84
4 75 76 86 85
4 76 77 87 86
4 77 78 88 87
4 78 79 89 88
4 80 81 91 90
4 81 82 92 91
4 82 83 93 92
4 83 84 94 93
4 84 85 95 94
4 85 86 96 95
4 86 87 97 96
4 87 88 98 97
4 88 89 99 98

CELL_TYPES 81
9
9
9
9
9
9
9
9
9
9
9
9
9
9
9
9
9
9
9
9
9
9
9
9
9
9
9
9
9
9
9
9
9
9
9
9
9
9
9
9
9
9
9
9
9
9
9
9
9
9
9
9
9
9
9
9
9
9
9
9
9
9
9
9
9
9
9
9
9
9
9
9
9
9
9
9
9
9
9
9
9
POINT_DATA 100
VECTORS y float
0 0 3.000000000
0 0 3.000000000
0 0 3.000000000
0 0 3.000000000
0 0 3.000000000
0 0 1.276717194
0 0 1.042401075
0 0 1.601193784
0 0 1.476234499
0 0 1.467839878
0 0 3.000000000
0 0 3.000000000
0 0 3.000000000
0 0 3.000000000
0 0 3.000000000
0 0 1.276717190
0 0 1.042401989
0 0 1.601193534
0 0 1.476235567
0 0 1.467840357
0 0 3.000000000
0 0 3.000000000
0 0 3.000000000
0 0 3.000000000
0 0 3.000000000
0 0 1.276715458
0 0 1.042400925
0 0 1.601190055
0 0 1.476232063
0 0 1.467837800
0 0 3.000000000
0 0 3.000000000
0 0 3.000000000
0 0 3.000000000
0 0 3.000000000
0 0 1.276716932
0 0 1.042402528
0 0 1.601192239
0 0 1.476233416
0 0 1.467837950
0 0 3.000000000
0 0 3.000000000
0 0 3.000000000
0 0 3.000000000
0 0 3.000000000
0 0 1.276716394
0 0 1.042401919
0 0 1.601191222
0 0 1.476232711
0 0 1.467837622
0 0 3.000000000
0 0 3.000000000
0 0 3.000000000
0 0 3.000000000
0 0 3.000000000
0 0 1.276716394
0 0 1.042401919
0 0 1.601191222
0 0 1.476232711
0 0 1.467837622
0 0 3.000000000
0 0 3.000000000
0 0 3.000000000
0 0 3.000000000
0 0 3.000000000
0 0 1.276716932
0 0 1.042402528
0 0 1.601192239
0 0 1.476233416
0 0 1.467837950
0 0 3.000000000
0 0 3.000000000
0 0 3.000000000
0 0 3.000000000
0 0 3.000000000
0 0 1.276715458
0 0 1.042400925
0 0 1.601190055
0 0 1.476232063
0 0 1.467837800
0 0 3.000000000
0 0 3.000000000
0 0 3.000000000
0 0 3.000000000
0 0 3.000000000
0 0 1.276717190
0 0 1.042401989
0 0 1.601193534
0 0 1.476235567
0 0 1.467840357
0 0 3.000000000
0 0 3.000000000
0 0 3.000000000
0 0 3.000000000
0 0 3.000000000
0 0 1.276717194
0 0 1.042401075
0 0 1.601193784
0 0 1.476234499
0 0 1.467839878
VECTORS u float
0 0 -0.000000000
0 0 0.000000000
0 0 -0.000000000
0 0 0.000000000
0 0 -0.000000000
0 0 38.085066698
0 0 -19.020063174
0 0 30.718656300
0 0 -18.563336040
0 0 0.428342297
0 0 0.000000000
0 0 -0.000000000
0 0 0.000000000
0 0 -0.000000000
0 0 0.000000000
0 0 38.085086649
0 0 -19.020098110
0 0 30.718790133
0 0 -18.563447075
0 0 0.428352432
0 0 -0.000000000
0 0 0.000000000
0 0 -0.000000000
0 0 0.000000000
0 0 -0.000000000
0 0 38.085007548
0 0 -19.020018248
0 0 30.718556447
0 0 -18.563267980
0 0 0.428345415
0 0 -0.000000000
0 0 0.000000000
0 0 -0.000000000
0 0 -0.000000000
0 0 0.000000000
0 0 38.085092887
0 0 -19.020090569
0 0 30.718752173
0 0 -18.563378862
0 0 0.428348517
0 0 0.000000000
0 0 -0.000000000
0 0 0.000000000
0 0 -0.000000000
0 0 0.000000000
0 0 38.085058027
0 0 -19.020059151
0 0 30.718667468
0 0 -18.563327583
0 0 0.428347324
0 0 -0.000000000
0 0 0.000000000
0 0 -0.000000000
0 0 0.000000000
0 0 -0.000000000
0 0 38.085058027
0 0 -19.020059151
0 0 30.718667468
0 0 -18.563327583
0 0 0.428347324
0 0 0.000000000
0 0 -0.000000000
0 0 0.000000000
0 0 -0.000000000
0 0 0.000000000
0 0 38.085092887
0 0 -19.020090569
0 0 30.718752173
0 0 -18.563378862
0 0 0.428348517
0 0 -0.000000000
0 0 0.000000000
0 0 -0.000000000
0 0 0.000000000
0 0 -0.000000000
0 0 38.085007548
0 0 -19.020018248
0 0 30.718556447
0 0 -18.563267979
0 0 0.428345415
0 0 0.000000000
0 0 -0.000000000
0 0 0.000000000
0 0 -0.000000000
0 0 0.000000000
0 0 38.085086649
0 0 -19.020098110
0 0 30.718790133
0 0 -18.563447075
0 0 0.428352433
0 0 -0.000000000
0 0 0.000000000
0 0 -0.000000000
0 0 0.000000000
0 0 -0.000000000
0 0 38.085066698
0 0 -19.020063174
0 0 30.718656300
0 0 -18.563336040
0 0 0.428342297
VECTORS lamda float
0 0 0.000000000
0 0 0.000000000
0 0 0.000000000
0 0 0.000000000
0 0 0.000000000
0 0 0.380850667
0 0 -0.190200632
0 0 0.307186563
0 0 -0.185633360
0 0 0.004283423
0 0 0.000000000
0 0 0.000000000
0 0 0.000000000
0 0 0.000000000
0 0 0.000000000
0 0 0.380850866
0 0 -0.190200981
0 0 0.307187901
0 0 -0.185634471
0 0 0.004283524
0 0 0.000000000
0 0 0.000000000
0 0 0.000000000
0 0 0.000000000
0 0 0.000000000
0 0 0.380850075
0 0 -0.190200182
0 0 0.307185564
0 0 -0.185632680
0 0 0.004283454
0 0 0.000000000
0 0 0.000000000
0 0 0.000000000
0 0 0.000000000
0 0 0.000000000
0 0 0.380850929
0 0 -0.190200906
0 0 0.307187522
0 0 -0.185633789
0 0 0.004283485
0 0 0.000000000
0 0 0.000000000
0 0 0.000000000
0 0 0.000000000
0 0 0.000000000
0 0 0.380850580
0 0 -0.190200592
0 0 0.307186675
0 0 -0.185633276
0 0 0.004283473
0 0 0.000000000
0 0 0.000000000
0 0 0.000000000
0 0 0.000000000
0 0 0.000000000
0 0 0.380850580
0 0 -0.190200592
0 0 0.307186675
0 0 -0.185633276
0 0 0.004283473
0 0 0.000000000
0 0 0.000000000
0 0 0.000000000
0 0 0.000000000
0 0 0.000000000
0 0 0.380850929
0 0 -0.190200906
0 0 0.307187522
0 0 -0.185633789
0 0 0.004283485
0 0 0.000000000
0 0 0.000000000
0 0 0.000000000
0 0 0.000000000
0 0 0.000000000
0 0 0.380850075
0 0 -0.190200182
0 0 0.307185564
0 0 -0.185632680
0 0 0.004283454
0 0 0.000000000
0 0 0.000000000
0 0 0.000000000
0 0 0.000000000
0 0 0.000000000
0 0 0.380850866
0 0 -0.190200981
0 0 0.307187901
0 0 -0.185634471
0 0 0.004283524
0 0 0.000000000
0 0 0.000000000
0 0 0.000000000
0 0 0.000000000
0 0 0.000000000
0 0 0.380850667
0 0 -0.190200632
0 0 0.307186563
0 0 -0.185633360
0 0 0.004283423
