# vtk DataFile Version 2.0
Hex test
ASCII
DATASET UNSTRUCTURED_GRID
POINTS 784 float
0 0.000000000 0.000000000
0.024034400 0.000000000 0.000000000
0.074656133 0.000000000 0.000000000
0.134643000 0.000000000 0.000000000
0.000000000 0.024034400 0.000000000
0.024034400 0.024034400 0.000000000
0.074656133 0.024034400 0.000000000
0.134643000 0.024034400 0.000000000
0.000000000 0.074656133 0.000000000
0.024034400 0.074656133 0.000000000
0.074656133 0.074656133 0.000000000
0.134643000 0.074656133 0.000000000
0.000000000 0.134643000 0.000000000
0.024034400 0.134643000 0.000000000
0.074656133 0.134643000 0.000000000
0.134643000 0.134643000 0.000000000
0.134643000 0.000000000 0.000000000
0.190079148 0.000000000 0.000000000
0.240277519 0.000000000 0.000000000
0.287857000 0.000000000 0.000000000
0.134643000 0.024034400 0.000000000
0.190079148 0.024034400 0.000000000
0.240277519 0.024034400 0.000000000
0.287857000 0.024034400 0.000000000
0.134643000 0.074656133 0.000000000
0.190079148 0.074656133 0.000000000
0.240277519 0.074656133 0.000000000
0.287857000 0.074656133 0.000000000
0.134643000 0.134643000 0.000000000
0.190079148 0.134643000 0.000000000
0.240277519 0.134643000 0.000000000
0.287857000 0.134643000 0.000000000
0.287857000 0.000000000 0.000000000
0.335000000 0.000000000 0.000000000
0.382143000 0.000000000 0.000000000
0.429286000 0.000000000 0.000000000
0.287857000 0.024034400 0.000000000
0.335000000 0.024034400 0.000000000
0.382143000 0.024034400 0.000000000
0.429286000 0.024034400 0.000000000
0.287857000 0.074656133 0.000000000
0.335000000 0.074656133 0.000000000
0.382143000 0.074656133 0.000000000
0.429286000 0.074656133 0.000000000
0.287857000 0.134643000 0.000000000
0.335000000 0.134643000 0.000000000
0.382143000 0.134643000 0.000000000
0.429286000 0.134643000 0.000000000
0.429286000 0.000000000 0.000000000
0.476428741 0.000000000 0.000000000
0.523571259 0.000000000 0.000000000
0.570714000 0.000000000 0.000000000
0.429286000 0.024034400 0.000000000
0.476428741 0.024034400 0.000000000
0.523571259 0.024034400 0.000000000
0.570714000 0.024034400 0.000000000
0.429286000 0.074656133 0.000000000
0.476428741 0.074656133 0.000000000
0.523571259 0.074656133 0.000000000
0.570714000 0.074656133 0.000000000
0.429286000 0.134643000 0.000000000
0.476428741 0.134643000 0.000000000
0.523571259 0.134643000 0.000000000
0.570714000 0.134643000 0.000000000
0.570714000 0.000000000 0.000000000
0.617857000 0.000000000 0.000000000
0.665000000 0.000000000 0.000000000
0.712143000 0.000000000 0.000000000
0.570714000 0.024034400 0.000000000
0.617857000 0.024034400 0.000000000
0.665000000 0.024034400 0.000000000
0.712143000 0.024034400 0.000000000
0.570714000 0.074656133 0.000000000
0.617857000 0.074656133 0.000000000
0.665000000 0.074656133 0.000000000
0.712143000 0.074656133 0.000000000
0.570714000 0.134643000 0.000000000
0.617857000 0.134643000 0.000000000
0.665000000 0.134643000 0.000000000
0.712143000 0.134643000 0.000000000
0.712143000 0.000000000 0.000000000
0.759722481 0.000000000 0.000000000
0.809920852 0.000000000 0.000000000
0.865357000 0.000000000 0.000000000
0.712143000 0.024034400 0.000000000
0.759722481 0.024034400 0.000000000
0.809920852 0.024034400 0.000000000
0.865357000 0.024034400 0.000000000
0.712143000 0.074656133 0.000000000
0.759722481 0.074656133 0.000000000
0.809920852 0.074656133 0.000000000
0.865357000 0.074656133 0.000000000
0.712143000 0.134643000 0.000000000
0.759722481 0.134643000 0.000000000
0.809920852 0.134643000 0.000000000
0.865357000 0.134643000 0.000000000
0.865357000 0.000000000 0.000000000
0.925344000 0.000000000 0.000000000
0.975965667 0.000000000 0.000000000
1.000000000 0.000000000 0.000000000
0.865357000 0.024034400 0.000000000
0.925344000 0.024034400 0.000000000
0.975965667 0.024034400 0.000000000
1.000000000 0.024034400 0.000000000
0.865357000 0.074656133 0.000000000
0.925344000 0.074656133 0.000000000
0.975965667 0.074656133 0.000000000
1.000000000 0.074656133 0.000000000
0.865357000 0.134643000 0.000000000
0.925344000 0.134643000 0.000000000
0.975965667 0.134643000 0.000000000
1.000000000 0.134643000 0.000000000
0.000000000 0.134643000 0.000000000
0.024034400 0.134643000 0.000000000
0.074656133 0.134643000 0.000000000
0.134643000 0.134643000 0.000000000
0.000000000 0.190079148 0.000000000
0.024034400 0.190079148 0.000000000
0.074656133 0.190079148 0.000000000
0.134643000 0.190079148 0.000000000
0.000000000 0.240277519 0.000000000
0.024034400 0.240277519 0.000000000
0.074656133 0.240277519 0.000000000
0.134643000 0.240277519 0.000000000
0.000000000 0.287857000 0.000000000
0.024034400 0.287857000 0.000000000
0.074656133 0.287857000 0.000000000
0.134643000 0.287857000 0.000000000
0.134643000 0.134643000 0.000000000
0.190079148 0.134643000 0.000000000
0.240277519 0.134643000 0.000000000
0.287857000 0.134643000 0.000000000
0.134643000 0.190079148 0.000000000
0.190079148 0.190079148 0.000000000
0.240277519 0.190079148 0.000000000
0.287857000 0.190079148 0.000000000
0.134643000 0.240277519 0.000000000
0.190079148 0.240277519 0.000000000
0.240277519 0.240277519 0.000000000
0.287857000 0.240277519 0.000000000
0.134643000 0.287857000 0.000000000
0.190079148 0.287857000 0.000000000
0.240277519 0.287857000 0.000000000
0.287857000 0.287857000 0.000000000
0.287857000 0.134643000 0.000000000
0.335000000 0.134643000 0.000000000
0.382143000 0.134643000 0.000000000
0.429286000 0.134643000 0.000000000
0.287857000 0.190079148 0.000000000
0.335000000 0.190079148 0.000000000
0.382143000 0.190079148 0.000000000
0.429286000 0.190079148 0.000000000
0.287857000 0.240277519 0.000000000
0.335000000 0.240277519 0.000000000
0.382143000 0.240277519 0.000000000
0.429286000 0.240277519 0.000000000
0.287857000 0.287857000 0.000000000
0.335000000 0.287857000 0.000000000
0.382143000 0.287857000 0.000000000
0.429286000 0.287857000 0.000000000
0.429286000 0.134643000 0.000000000
0.476428741 0.134643000 0.000000000
0.523571259 0.134643000 0.000000000
0.570714000 0.134643000 0.000000000
0.429286000 0.190079148 0.000000000
0.476428741 0.190079148 0.000000000
0.523571259 0.190079148 0.000000000
0.570714000 0.190079148 0.000000000
0.429286000 0.240277519 0.000000000
0.476428741 0.240277519 0.000000000
0.523571259 0.240277519 0.000000000
0.570714000 0.240277519 0.000000000
0.429286000 0.287857000 0.000000000
0.476428741 0.287857000 0.000000000
0.523571259 0.287857000 0.000000000
0.570714000 0.287857000 0.000000000
0.570714000 0.134643000 0.000000000
0.617857000 0.134643000 0.000000000
0.665000000 0.134643000 0.000000000
0.712143000 0.134643000 0.000000000
0.570714000 0.190079148 0.000000000
0.617857000 0.190079148 0.000000000
0.665000000 0.190079148 0.000000000
0.712143000 0.190079148 0.000000000
0.570714000 0.240277519 0.000000000
0.617857000 0.240277519 0.000000000
0.665000000 0.240277519 0.000000000
0.712143000 0.240277519 0.000000000
0.570714000 0.287857000 0.000000000
0.617857000 0.287857000 0.000000000
0.665000000 0.287857000 0.000000000
0.712143000 0.287857000 0.000000000
0.712143000 0.134643000 0.000000000
0.759722481 0.134643000 0.000000000
0.809920852 0.134643000 0.000000000
0.865357000 0.134643000 0.000000000
0.712143000 0.190079148 0.000000000
0.759722481 0.190079148 0.000000000
0.809920852 0.190079148 0.000000000
0.865357000 0.190079148 0.000000000
0.712143000 0.240277519 0.000000000
0.759722481 0.240277519 0.000000000
0.809920852 0.240277519 0.000000000
0.865357000 0.240277519 0.000000000
0.712143000 0.287857000 0.000000000
0.759722481 0.287857000 0.000000000
0.809920852 0.287857000 0.000000000
0.865357000 0.287857000 0.000000000
0.865357000 0.134643000 0.000000000
0.925344000 0.134643000 0.000000000
0.975965667 0.134643000 0.000000000
1.000000000 0.134643000 0.000000000
0.865357000 0.190079148 0.000000000
0.925344000 0.190079148 0.000000000
0.975965667 0.190079148 0.000000000
1.000000000 0.190079148 0.000000000
0.865357000 0.240277519 0.000000000
0.925344000 0.240277519 0.000000000
0.975965667 0.240277519 0.000000000
1.000000000 0.240277519 0.000000000
0.865357000 0.287857000 0.000000000
0.925344000 0.287857000 0.000000000
0.975965667 0.287857000 0.000000000
1.000000000 0.287857000 0.000000000
0.000000000 0.287857000 0.000000000
0.024034400 0.287857000 0.000000000
0.074656133 0.287857000 0.000000000
0.134643000 0.287857000 0.000000000
0.000000000 0.335000000 0.000000000
0.024034400 0.335000000 0.000000000
0.074656133 0.335000000 0.000000000
0.134643000 0.335000000 0.000000000
0.000000000 0.382143000 0.000000000
0.024034400 0.382143000 0.000000000
0.074656133 0.382143000 0.000000000
0.134643000 0.382143000 0.000000000
0.000000000 0.429286000 0.000000000
0.024034400 0.429286000 0.000000000
0.074656133 0.429286000 0.000000000
0.134643000 0.429286000 0.000000000
0.134643000 0.287857000 0.000000000
0.190079148 0.287857000 0.000000000
0.240277519 0.287857000 0.000000000
0.287857000 0.287857000 0.000000000
0.134643000 0.335000000 0.000000000
0.190079148 0.335000000 0.000000000
0.240277519 0.335000000 0.000000000
0.287857000 0.335000000 0.000000000
0.134643000 0.382143000 0.000000000
0.190079148 0.382143000 0.000000000
0.240277519 0.382143000 0.000000000
0.287857000 0.382143000 0.000000000
0.134643000 0.429286000 0.000000000
0.190079148 0.429286000 0.000000000
0.240277519 0.429286000 0.000000000
0.287857000 0.429286000 0.000000000
0.287857000 0.287857000 0.000000000
0.335000000 0.287857000 0.000000000
0.382143000 0.287857000 0.000000000
0.429286000 0.287857000 0.000000000
0.287857000 0.335000000 0.000000000
0.335000000 0.335000000 0.000000000
0.382143000 0.335000000 0.000000000
0.429286000 0.335000000 0.000000000
0.287857000 0.382143000 0.000000000
0.335000000 0.382143000 0.000000000
0.382143000 0.382143000 0.000000000
0.429286000 0.382143000 0.000000000
0.287857000 0.429286000 0.000000000
0.335000000 0.429286000 0.000000000
0.382143000 0.429286000 0.000000000
0.429286000 0.429286000 0.000000000
0.429286000 0.287857000 0.000000000
0.476428741 0.287857000 0.000000000
0.523571259 0.287857000 0.000000000
[...]
POINT_DATA 784
VECTORS y float
1.000000000 0 0
0.917347313 0 0
0.751677822 0 0
0.566724383 0 0
0.917347313 0 0
0.843090094 0 0
0.697661660 0 0
0.533835748 0 0
0.751677822 0 0
0.697661660 0 0
0.590638965 0 0
0.465994567 0 0
0.566724383 0 0
0.533835748 0 0
0.465994567 0 0
0.382188013 0 0
0.566724383 0 0
0.414116327 0 0
0.297067388 0 0
0.206687988 0 0
0.533835748 0 0
0.394676877 0 0
0.284412224 0 0
0.197559815 0 0
0.465994567 0 0
0.353153375 0 0
0.257700219 0 0
0.179259831 0 0
0.382188013 0 0
0.298833560 0 0
0.222064141 0 0
0.155442795 0 0
0.206687988 0 0
0.135446002 0 0
0.081242874 0 0
0.043337822 0 0
0.197559815 0 0
0.129345857 0 0
0.077831391 0 0
0.041785765 0 0
0.179259831 0 0
0.117291015 0 0
0.070588937 0 0
0.037782773 0 0
0.155442795 0 0
0.101785666 0 0
0.060923348 0 0
0.031939902 0 0
0.043337822 0 0
0.020372470 0 0
0.008519391 0 0
0.003333680 0 0
0.041785765 0 0
0.019548212 0 0
0.007738231 0 0
0.002545254 0 0
0.037782773 0 0
0.017219870 0 0
0.006120301 0 0
0.001422283 0 0
0.031939902 0 0
0.013661405 0 0
0.003882674 0 0
0.000140675 0 0
0.003333680 0 0
0.000987757 0 0
0.000123470 0 0
0.000000000 0 0
0.002545254 0 0
0.000615641 0 0
0.000423558 0 0
0.000900106 0 0
0.001422283 0 0
0.000340998 0 0
0.001199475 0 0
0.002597703 0 0
0.000140675 0 0
0.000116469 0 0
0.002067610 0 0
0.004395764 0 0
0.000000000 0 0
0.000000000 0 0
0.000000000 0 0
0.000000000 0 0
0.000900106 0 0
0.001171639 0 0
0.001145508 0 0
0.000924319 0 0
0.002597703 0 0
0.003387698 0 0
0.003429603 0 0
0.002835590 0 0
0.004395764 0 0
0.005775434 0 0
0.005972463 0 0
0.005025522 0 0
0.000000000 0 0
0.000000000 0 0
0.000000000 0 0
0.000000000 0 0
0.000924319 0 0
0.000606363 0 0
0.000272681 0 0
0.000000000 0 0
0.002835590 0 0
0.001778578 0 0
0.000674491 0 0
0.000000000 0 0
0.005025522 0 0
0.003132255 0 0
0.001126232 0 0
0.000000000 0 0
0.566724383 0 0
0.533835748 0 0
0.465994567 0 0
0.382188013 0 0
0.414116327 0 0
0.394676877 0 0
0.353153375 0 0
0.298833560 0 0
0.297067388 0 0
0.284412224 0 0
0.257700219 0 0
0.222064141 0 0
0.206687988 0 0
0.197559815 0 0
0.179259831 0 0
0.155442795 0 0
0.382188013 0 0
0.298833560 0 0
0.222064141 0 0
0.155442795 0 0
0.298833560 0 0
0.240165866 0 0
0.182241352 0 0
0.129311672 0 0
0.222064141 0 0
0.182241352 0 0
0.141388102 0 0
0.102265107 0 0
0.155442795 0 0
0.129311672 0 0
0.102265107 0 0
0.075250167 0 0
0.155442795 0 0
0.101785666 0 0
0.060923348 0 0
0.031939902 0 0
0.129311672 0 0
0.084956955 0 0
0.050072006 0 0
0.024880208 0 0
0.102265107 0 0
0.067425278 0 0
0.038590604 0 0
0.017275269 0 0
0.075250167 0 0
0.049434048 0 0
0.026864343 0 0
0.009808715 0 0
0.031939902 0 0
0.013661405 0 0
0.003882674 0 0
0.000140675 0 0
0.024880208 0 0
0.009202894 0 0
0.001253463 0 0
-0.001156698 0 0
0.017275269 0 0
0.004399135 0 0
-0.001495118 0 0
-0.002459126 0 0
0.009808715 0 0
-0.000138936 0 0
-0.004079821 0 0
-0.003788935 0 0
0.000140675 0 0
0.000116469 0 0
0.002067610 0 0
0.004395764 0 0
-0.001156698 0 0
-0.000113741 0 0
0.002706062 0 0
0.005728904 0 0
-0.002459126 0 0
-0.000439184 0 0
0.003039819 0 0
0.006558341 0 0
-0.003788935 0 0
-0.000957847 0 0
0.003055585 0 0
0.006976934 0 0
0.004395764 0 0
0.005775434 0 0
0.005972463 0 0
0.005025522 0 0
0.005728904 0 0
0.007626427 0 0
0.008052070 0 0
0.006904717 0 0
0.006558341 0 0
0.008889570 0 0
0.009577626 0 0
0.008359360 0 0
0.006976934 0 0
0.009678076 0 0
0.010616127 0 0
0.009394514 0 0
0.005025522 0 0
0.003132255 0 0
0.001126232 0 0
0.000000000 0 0
0.006904717 0 0
0.004342008 0 0
0.001556622 0 0
0.000000000 0 0
0.008359360 0 0
0.005318462 0 0
0.001926029 0 0
0.000000000 0 0
0.009394514 0 0
0.006031243 0 0
0.002202738 0 0
0.000000000 0 0
0.206687988 0 0
0.197559815 0 0
0.179259831 0 0
0.155442795 0 0
0.135446002 0 0
0.129345857 0 0
0.117291015 0 0
0.101785666 0 0
0.081242874 0 0
0.077831391 0 0
0.070588937 0 0
0.060923348 0 0
0.043337822 0 0
0.041785765 0 0
0.037782773 0 0
0.031939902 0 0
0.155442795 0 0
0.129311672 0 0
0.102265107 0 0
0.075250167 0 0
0.101785666 0 0
0.084956955 0 0
0.067425278 0 0
0.049434048 0 0
0.060923348 0 0
0.050072006 0 0
0.038590604 0 0
0.026864343 0 0
0.031939902 0 0
0.024880208 0 0
0.017275269 0 0
0.009808715 0 0
0.075250167 0 0
0.049434048 0 0
0.026864343 0 0
0.009808715 0 0
0.049434048 0 0
0.031521994 0 0
0.015409089 0 0
0.003110598 0 0
0.026864343 0 0
0.015409089 0 0
0.005263432 0 0
-0.002403377 0 0
0.009808715 0 0
0.003110598 0 0
-0.002403377 0 0
-0.006371104 0 0
0.009808715 0 0
-0.000138936 0 0
-0.004079821 0 0
-0.003788935 0 0
0.003110598 0 0
-0.003890495 0 0
-0.006240358 0 0
-0.005117446 0 0
-0.002403377 0 0
-0.006695196 0 0
-0.007808277 0 0
-0.006211981 0 0
-0.006371104 0 0
-0.008482809 0 0
-0.008638083 0 0
-0.006788864 0 0
-0.003788935 0 0
-0.000957847 0 0
0.003055585 0 0
0.006976934 0 0
-0.005117446 0 0
-0.001709461 0 0
0.002758916 0 0
0.007053763 0 0
-0.006211981 0 0
-0.002500737 0 0
0.002230773 0 0
0.006762803 0 0
-0.006788864 0 0
-0.003080130 0 0
0.001570970 0 0
0.006054249 0 0
0.006976934 0 0
0.009678076 0 0
0.010616127 0 0
0.009394514 0 0
0.007053763 0 0
0.010068950 0 0
0.011209534 0 0
0.010008367 0 0
0.006762803 0 0
0.009994385 0 0
0.011299682 0 0
0.010171636 0 0
0.006054249 0 0
0.009350367 0 0
0.010803369 0 0
0.009848154 0 0
0.009394514 0 0
0.006031243 0 0
0.002202738 0 0
0.000000000 0 0
0.010008367 0 0
0.006454484 0 0
0.002361695 0 0
0.000000000 0 0
0.010171636 0 0
0.006580333 0 0
0.002404496 0 0
0.000000000 0 0
0.009848154 0 0
0.006405447 0 0
0.002339401 0 0
0.000000000 0 0
0.043337822 0 0
0.041785765 0 0
0.037782773 0 0
0.031939902 0 0
0.020372470 0 0
0.019548212 0 0
0.017219870 0 0
0.013661405 0 0
0.008519391 0 0
0.007738231 0 0
0.006120301 0 0
0.003882674 0 0
0.003333680 0 0
0.002545254 0 0
0.001422283 0 0
0.000140675 0 0
0.031939902 0 0
0.024880208 0 0
0.017275269 0 0
0.009808715 0 0
0.013661405 0 0
0.009202894 0 0
0.004399135 0 0
-0.000138936 0 0
0.003882674 0 0
0.001253463 0 0
-0.001495118 0 0
-0.004079821 0 0
0.000140675 0 0
-0.001156698 0 0
-0.002459126 0 0
-0.003788935 0 0
0.009808715 0 0
0.003110598 0 0
-0.002403377 0 0
-0.006371104 0 0
-0.000138936 0 0
-0.003890495 0 0
-0.006695196 0 0
-0.008482809 0 0
-0.004079821 0 0
-0.006240358 0 0
-0.007808277 0 0
-0.008638083 0 0
-0.003788935 0 0
-0.005117446 0 0
-0.006211981 0 0
-0.006788864 0 0
-0.006371104 0 0
-0.008482809 0 0
-0.008638083 0 0
-0.006788864 0 0
-0.008482809 0 0
-0.009167880 0 0
-0.008604067 0 0
-0.006629806 0 0
-0.008638083 0 0
-0.008604067 0 0
-0.007659662 0 0
-0.005778084 0 0
-0.006788864 0 0
-0.006629806 0 0
-0.005778084 0 0
-0.004342365 0 0
-0.006788864 0 0
-0.003080130 0 0
0.001570970 0 0
0.006054249 0 0
-0.006629806 0 0
-0.003248192 0 0
0.000879028 0 0
0.004925448 0 0
-0.005778084 0 0
-0.003013852 0 0
0.000253301 0 0
0.003562341 0 0
-0.004342365 0 0
-0.002438135 0 0
-0.000208150 0 0
0.002198018 0 0
0.006054249 0 0
0.009350367 0 0
0.010803369 0 0
0.009848154 0 0
0.004925448 0 0
0.008090728 0 0
0.009678796 0 0
0.009019651 0 0
0.003562341 0 0
0.006400715 0 0
0.008049809 0 0
0.007739493 0 0
0.002198018 0 0
0.004523424 0 0
0.006081658 0 0
0.006078942 0 0
0.009848154 0 0
0.006405447 0 0
0.002339401 0 0
0.000000000 0 0
0.009019651 0 0
0.005929988 0 0
0.002173353 0 0
0.000000000 0 0
0.007739493 0 0
0.005168120 0 0
0.001908017 0 0
0.000000000 0 0
0.006078942 0 0
0.004137512 0 0
0.001543737 0 0
0.000000000 0 0
0.003333680 0 0
0.002545254 0 0
0.001422283 0 0
0.000140675 0 0
0.000987757 0 0
0.000615641 0 0
0.000340998 0 0
0.000116469 0 0
0.000123470 0 0
0.000423558 0 0
0.001199475 0 0
0.002067610 0 0
0.000000000 0 0
0.000900106 0 0
0.002597703 0 0
0.004395764 0 0
0.000140675 0 0
-0.001156698 0 0
-0.002459126 0 0
-0.003788935 0 0
0.000116469 0 0
-0.000113741 0 0
-0.000439184 0 0
-0.000957847 0 0
0.002067610 0 0
0.002706062 0 0
0.003039819 0 0
0.003055585 0 0
0.004395764 0 0
0.005728904 0 0
0.006558341 0 0
0.006976934 0 0
-0.003788935 0 0
-0.005117446 0 0
-0.006211981 0 0
-0.006788864 0 0
-0.000957847 0 0
-0.001709461 0 0
-0.002500737 0 0
-0.003080130 0 0
0.003055585 0 0
0.002758916 0 0
0.002230773 0 0
0.001570970 0 0
0.006976934 0 0
0.007053763 0 0
0.006762803 0 0
0.006054249 0 0
-0.006788864 0 0
-0.006629806 0 0
-0.005778084 0 0
-0.004342365 0 0
-0.003080130 0 0
-0.003248192 0 0
-0.003013852 0 0
-0.002438135 0 0
0.001570970 0 0
0.000879028 0 0
0.000253301 0 0
-0.000208150 0 0
0.006054249 0 0
0.004925448 0 0
0.003562341 0 0
0.002198018 0 0
-0.004342365 0 0
-0.002438135 0 0
-0.000208150 0 0
0.002198018 0 0
-0.002438135 0 0
-0.001570408 0 0
-0.000413408 0 0
0.001041787 0 0
-0.000208150 0 0
-0.000413408 0 0
-0.000295144 0 0
0.000207829 0 0
0.002198018 0 0
0.001041787 0 0
0.000207829 0 0
-0.000213459 0 0
0.002198018 0 0
0.004523424 0 0
0.006081658 0 0
0.006078942 0 0
0.001041787 0 0
0.002687487 0 0
0.003949556 0 0
0.004137249 0 0
0.000207829 0 0
0.001063688 0 0
0.001868587 0 0
0.002125669 0 0
-0.000213459 0 0
-0.000191650 0 0
0.000063798 0 0
0.000283456 0 0
0.006078942 0 0
0.004137512 0 0
0.001543737 0 0
0.000000000 0 0
0.004137249 0 0
0.002880309 0 0
0.001090481 0 0
0.000000000 0 0
0.002125669 0 0
0.001536546 0 0
0.000596679 0 0
0.000000000 0 0
0.000283456 0 0
0.000270732 0 0
0.000120381 0 0
0.000000000 0 0
0.000000000 0 0
0.000900106 0 0
0.002597703 0 0
0.004395764 0 0
0.000000000 0 0
0.001171639 0 0
0.003387698 0 0
0.005775434 0 0
0.000000000 0 0
0.001145508 0 0
0.003429603 0 0
0.005972463 0 0
0.000000000 0 0
0.000924319 0 0
0.002835590 0 0
0.005025522 0 0
0.004395764 0 0
0.005728904 0 0
0.006558341 0 0
0.006976934 0 0
0.005775434 0 0
0.007626427 0 0
0.008889570 0 0
0.009678076 0 0
0.005972463 0 0
0.008052070 0 0
0.009577626 0 0
0.010616127 0 0
0.005025522 0 0
0.006904717 0 0
0.008359360 0 0
0.009394514 0 0
0.006976934 0 0
0.007053763 0 0
0.006762803 0 0
0.006054249 0 0
0.009678076 0 0
0.010068950 0 0
0.009994385 0 0
0.009350367 0 0
0.010616127 0 0
0.011209534 0 0
0.011299682 0 0
0.010803369 0 0
0.009394514 0 0
0.010008367 0 0
0.010171636 0 0
0.009848154 0 0
0.006054249 0 0
0.004925448 0 0
0.003562341 0 0
0.002198018 0 0
0.009350367 0 0
0.008090728 0 0
0.006400715 0 0
0.004523424 0 0
0.010803369 0 0
0.009678796 0 0
0.008049809 0 0
0.006081658 0 0
0.009848154 0 0
0.009019651 0 0
0.007739493 0 0
0.006078942 0 0
0.002198018 0 0
0.001041787 0 0
0.000207829 0 0
-0.000213459 0 0
0.004523424 0 0
0.002687487 0 0
0.001063688 0 0
-0.000191650 0 0
0.006081658 0 0
0.003949556 0 0
0.001868587 0 0
0.000063798 0 0
0.006078942 0 0
0.004137249 0 0
0.002125669 0 0
0.000283456 0 0
-0.000213459 0 0
-0.000191650 0 0
0.000063798 0 0
0.000283456 0 0
-0.000191650 0 0
-0.000958453 0 0
-0.001261628 0 0
-0.001162331 0 0
0.000063798 0 0
-0.001261628 0 0
-0.001991972 0 0
-0.002033374 0 0
0.000283456 0 0
-0.001162331 0 0
-0.002033374 0 0
-0.002163537 0 0
0.000283456 0 0
0.000270732 0 0
0.000120381 0 0
0.000000000 0 0
-0.001162331 0 0
-0.000756488 0 0
-0.000279114 0 0
0.000000000 0 0
-0.002033374 0 0
-0.001399926 0 0
-0.000537521 0 0
0.000000000 0 0
-0.002163537 0 0
-0.001518262 0 0
-0.000589305 0 0
0.000000000 0 0
0.000000000 0 0
0.000924319 0 0
0.002835590 0 0
0.005025522 0 0
0.000000000 0 0
0.000606363 0 0
0.001778578 0 0
0.003132255 0 0
0.000000000 0 0
0.000272681 0 0
0.000674491 0 0
0.001126232 0 0
0.000000000 0 0
0.000000000 0 0
0.000000000 0 0
0.000000000 0 0
0.005025522 0 0
0.006904717 0 0
0.008359360 0 0
0.009394514 0 0
0.003132255 0 0
0.004342008 0 0
0.005318462 0 0
0.006031243 0 0
0.001126232 0 0
0.001556622 0 0
0.001926029 0 0
0.002202738 0 0
0.000000000 0 0
0.000000000 0 0
0.000000000 0 0
0.000000000 0 0
0.009394514 0 0
0.010008367 0 0
0.010171636 0 0
0.009848154 0 0
0.006031243 0 0
0.006454484 0 0
0.006580333 0 0
0.006405447 0 0
0.002202738 0 0
0.002361695 0 0
0.002404496 0 0
0.002339401 0 0
0.000000000 0 0
0.000000000 0 0
0.000000000 0 0
0.000000000 0 0
0.009848154 0 0
0.009019651 0 0
0.007739493 0 0
0.006078942 0 0
0.006405447 0 0
0.005929988 0 0
0.005168120 0 0
0.004137512 0 0
0.002339401 0 0
0.002173353 0 0
0.001908017 0 0
0.001543737 0 0
0.000000000 0 0
0.000000000 0 0
0.000000000 0 0
0.000000000 0 0
0.006078942 0 0
0.004137249 0 0
0.002125669 0 0
0.000283456 0 0
0.004137512 0 0
0.002880309 0 0
0.001536546 0 0
0.000270732 0 0
0.001543737 0 0
0.001090481 0 0
0.000596679 0 0
0.000120381 0 0
0.000000000 0 0
0.000000000 0 0
0.000000000 0 0
0.000000000 0 0
0.000283456 0 0
-0.001162331 0 0
-0.002033374 0 0
-0.002163537 0 0
0.000270732 0 0
-0.000756488 0 0
-0.001399926 0 0
-0.001518262 0 0
0.000120381 0 0
-0.000279114 0 0
-0.000537521 0 0
-0.000589305 0 0
0.000000000 0 0
0.000000000 0 0
0.000000000 0 0
0.000000000 0 0
-0.002163537 0 0
-0.001518262 0 0
-0.000589305 0 0
0.000000000 0 0
-0.001518262 0 0
-0.001069821 0 0
-0.000411539 0 0
0.000000000 0 0
-0.000589305 0 0
-0.000411539 0 0
-0.000151732 0 0
0.000000000 0 0
0.000000000 0 0
0.000000000 0 0
0.000000000 0 0
0.000000000 0 0
VECTORS u float
-0.000000000 0 0
0.000000000 0 0
0.000000000 0 0
-0.000000000 0 0
0.000000000 0 0
-0.068827735 0 0
-0.206904341 0 0
-0.327594651 0 0
0.000000000 0 0
-0.206904341 0 0
-0.581811208 0 0
-0.905547481 0 0
0.000000000 0 0
-0.327594651 0 0
-0.905547481 0 0
-1.409651915 0 0
-0.000000000 0 0
0.000000000 0 0
0.000000000 0 0
0.000000000 0 0
-0.327594651 0 0
-0.364545166 0 0
-0.332531720 0 0
-0.266611595 0 0
-0.905547481 0 0
-1.009939661 0 0
-0.930818513 0 0
-0.755013713 0 0
-1.409651915 0 0
-1.589691128 0 0
-1.491408263 0 0
-1.234535178 0 0
0.000000000 0 0
-0.000000000 0 0
-0.000000000 0 0
-0.000000000 0 0
-0.266611595 0 0
-0.196713719 0 0
-0.132251970 0 0
-0.077511553 0 0
-0.755013713 0 0
-0.557989412 0 0
-0.369745995 0 0
-0.208918002 0 0
-1.234535178 0 0
-0.925314339 0 0
-0.616041667 0 0
-0.345525345 0 0
-0.000000000 0 0
0.000000000 0 0
0.000000000 0 0
0.000000000 0 0
-0.077511553 0 0
-0.035929497 0 0
-0.007549184 0 0
0.008434398 0 0
-0.208918002 0 0
-0.090198639 0 0
-0.012514731 0 0
0.029148508 0 0
-0.345525345 0 0
-0.144745219 0 0
-0.013373056 0 0
0.056746847 0 0
0.000000000 0 0
0.000000000 0 0
-0.000000000 0 0
-0.000000000 0 0
0.008434398 0 0
0.013395086 0 0
0.010982108 0 0
0.005413550 0 0
0.029148508 0 0
0.040830050 0 0
0.032665799 0 0
0.015815899 0 0
0.056746847 0 0
0.075564335 0 0
0.060204994 0 0
0.029588426 0 0
-0.000000000 0 0
-0.000000000 0 0
0.000000000 0 0
0.000000000 0 0
0.005413550 0 0
0.000289393 0 0
-0.003262857 0 0
-0.004733823 0 0
0.015815899 0 0
-0.000053119 0 0
-0.011249269 0 0
-0.015574217 0 0
0.029588426 0 0
0.000248435 0 0
-0.020824012 0 0
-0.029023671 0 0
0.000000000 0 0
-0.000000000 0 0
-0.000000000 0 0
0.000000000 0 0
-0.004733823 0 0
-0.003926509 0 0
-0.001893557 0 0
-0.000000000 0 0
-0.015574217 0 0
-0.012113354 0 0
-0.005087192 0 0
-0.000000000 0 0
-0.029023671 0 0
-0.022325534 0 0
-0.009025571 0 0
0.000000000 0 0
0.000000000 0 0
-0.327594651 0 0
-0.905547481 0 0
-1.409651915 0 0
-0.000000000 0 0
-0.364545166 0 0
-1.009939661 0 0
-1.589691128 0 0
0.000000000 0 0
-0.332531720 0 0
-0.930818513 0 0
-1.491408263 0 0
0.000000000 0 0
-0.266611595 0 0
-0.755013713 0 0
-1.234535178 0 0
-1.409651915 0 0
-1.589691128 0 0
-1.491408263 0 0
-1.234535178 0 0
-1.589691128 0 0
-1.833128737 0 0
-1.772870344 0 0
-1.517354129 0 0
-1.491408263 0 0
-1.772870344 0 0
-1.781861268 0 0
-1.587057870 0 0
-1.234535178 0 0
-1.517354129 0 0
-1.587057870 0 0
-1.470082964 0 0
-1.234535178 0 0
-0.925314339 0 0
-0.616041667 0 0
-0.345525345 0 0
-1.517354129 0 0
-1.166952865 0 0
-0.789782855 0 0
-0.445895469 0 0
-1.587057870 0 0
-1.258283536 0 0
-0.869950282 0 0
-0.497616630 0 0
-1.470082964 0 0
-1.201461685 0 0
-0.850608454 0 0
-0.495533053 0 0
-0.345525345 0 0
-0.144745219 0 0
-0.013373056 0 0
0.056746847 0 0
-0.445895469 0 0
-0.184211898 0 0
-0.009135459 0 0
0.086060469 0 0
-0.497616630 0 0
-0.204062190 0 0
-0.000952156 0 0
0.112827259 0 0
-0.495533053 0 0
-0.202464511 0 0
0.009491807 0 0
0.133011615 0 0
0.056746847 0 0
0.075564335 0 0
0.060204994 0 0
0.029588426 0 0
0.086060469 0 0
0.111271055 0 0
0.089065178 0 0
0.045180231 0 0
0.112827259 0 0
0.143278454 0 0
0.115958101 0 0
0.061311510 0 0
0.133011615 0 0
0.167328414 0 0
0.137907037 0 0
0.076770199 0 0
0.029588426 0 0
0.000248435 0 0
-0.020824012 0 0
-0.029023671 0 0
0.045180231 0 0
0.002287807 0 0
-0.029203496 0 0
-0.041950862 0 0
0.061311510 0 0
0.006430030 0 0
-0.035010775 0 0
-0.052689323 0 0
0.076770199 0 0
0.012857946 0 0
-0.037220504 0 0
-0.059938682 0 0
-0.029023671 0 0
-0.022325534 0 0
-0.009025571 0 0
0.000000000 0 0
-0.041950862 0 0
-0.032526243 0 0
-0.013160671 0 0
0.000000000 0 0
-0.052689323 0 0
-0.041471530 0 0
-0.016973779 0 0
0.000000000 0 0
-0.059938682 0 0
-0.048115632 0 0
-0.019953504 0 0
-0.000000000 0 0
0.000000000 0 0
-0.266611595 0 0
-0.755013713 0 0
-1.234535178 0 0
0.000000000 0 0
-0.196713719 0 0
-0.557989412 0 0
-0.925314339 0 0
0.000000000 0 0
-0.132251970 0 0
-0.369745995 0 0
-0.616041667 0 0
0.000000000 0 0
-0.077511553 0 0
-0.208918002 0 0
-0.345525345 0 0
-1.234535178 0 0
-1.517354129 0 0
-1.587057870 0 0
-1.470082964 0 0
-0.925314339 0 0
-1.166952865 0 0
-1.258283536 0 0
-1.201461685 0 0
-0.616041667 0 0
-0.789782855 0 0
-0.869950282 0 0
-0.850608454 0 0
-0.345525345 0 0
-0.445895469 0 0
-0.497616630 0 0
-0.495533053 0 0
-1.470082964 0 0
-1.201461685 0 0
-0.850608454 0 0
-0.495533053 0 0
-1.201461685 0 0
-1.008803497 0 0
-0.733269181 0 0
-0.437979692 0 0
-0.850608454 0 0
-0.733269181 0 0
-0.549234597 0 0
-0.337254077 0 0
-0.495533053 0 0
-0.437979692 0 0
-0.337254077 0 0
-0.209144300 0 0
-0.495533053 0 0
-0.202464511 0 0
0.009491807 0 0
0.133011615 0 0
-0.437979692 0 0
-0.178341475 0 0
0.021096700 0 0
0.143500681 0 0
-0.337254077 0 0
-0.133632319 0 0
0.035103907 0 0
0.144872602 0 0
-0.209144300 0 0
-0.071030426 0 0
0.053340134 0 0
0.138628277 0 0
0.133011615 0 0
0.167328414 0 0
0.137907037 0 0
0.076770199 0 0
0.143500681 0 0
0.179806419 0 0
0.152030176 0 0
0.089958351 0 0
0.144872602 0 0
0.179672575 0 0
0.155825660 0 0
0.097734513 0 0
0.138628277 0 0
0.166530594 0 0
0.146886552 0 0
0.096571357 0 0
0.076770199 0 0
0.012857946 0 0
-0.037220504 0 0
-0.059938682 0 0
0.089958351 0 0
0.021210005 0 0
-0.035265078 0 0
-0.062684477 0 0
0.097734513 0 0
0.028947019 0 0
-0.030407930 0 0
-0.061056239 0 0
0.096571357 0 0
0.032985415 0 0
-0.024370212 0 0
-0.055469336 0 0
-0.059938682 0 0
-0.048115632 0 0
-0.019953504 0 0
-0.000000000 0 0
-0.062684477 0 0
-0.051569994 0 0
-0.021660709 0 0
-0.000000000 0 0
-0.061056239 0 0
-0.051574841 0 0
-0.021945230 0 0
-0.000000000 0 0
-0.055469336 0 0
-0.048027614 0 0
-0.020729169 0 0
-0.000000000 0 0
0.000000000 0 0
-0.077511553 0 0
-0.208918002 0 0
-0.345525345 0 0
0.000000000 0 0
-0.035929497 0 0
-0.090198639 0 0
-0.144745219 0 0
0.000000000 0 0
-0.007549184 0 0
-0.012514731 0 0
-0.013373056 0 0
-0.000000000 0 0
0.008434398 0 0
0.029148508 0 0
0.056746847 0 0
-0.345525345 0 0
-0.445895469 0 0
-0.497616630 0 0
-0.495533053 0 0
-0.144745219 0 0
-0.184211898 0 0
-0.204062190 0 0
-0.202464511 0 0
-0.013373056 0 0
-0.009135459 0 0
-0.000952156 0 0
0.009491807 0 0
0.056746847 0 0
0.086060469 0 0
0.112827259 0 0
0.133011615 0 0
-0.495533053 0 0
-0.437979692 0 0
-0.337254077 0 0
-0.209144300 0 0
-0.202464511 0 0
-0.178341475 0 0
-0.133632319 0 0
-0.071030426 0 0
0.009491807 0 0
0.021096700 0 0
0.035103907 0 0
0.053340134 0 0
0.133011615 0 0
0.143500681 0 0
0.144872602 0 0
0.138628277 0 0
-0.209144300 0 0
-0.071030426 0 0
0.053340134 0 0
0.138628277 0 0
-0.071030426 0 0
0.004150209 0 0
0.076113467 0 0
0.126442708 0 0
0.053340134 0 0
0.076113467 0 0
0.097657562 0 0
0.110687486 0 0
0.138628277 0 0
0.126442708 0 0
0.110687486 0 0
0.093908392 0 0
0.138628277 0 0
0.166530594 0 0
0.146886552 0 0
0.096571357 0 0
0.126442708 0 0
0.141192332 0 0
0.124301064 0 0
0.084178685 0 0
0.110687486 0 0
0.109302446 0 0
0.093138227 0 0
0.063214763 0 0
0.093908392 0 0
0.077713763 0 0
0.059962220 0 0
0.037574964 0 0
0.096571357 0 0
0.032985415 0 0
-0.024370212 0 0
-0.055469336 0 0
0.084178685 0 0
0.030892023 0 0
-0.018863921 0 0
-0.046737123 0 0
0.063214763 0 0
0.022835180 0 0
-0.015564597 0 0
-0.037265471 0 0
0.037574964 0 0
0.009633618 0 0
-0.016138644 0 0
-0.029858297 0 0
-0.055469336 0 0
-0.048027614 0 0
-0.020729169 0 0
-0.000000000 0 0