# vtk DataFile Version 2.0
Square plate test
ASCII
DATASET UNSTRUCTURED_GRID
POINTS 1470 float
4.613629 -0.288197 0
4.749652 0.133878 0
4.725765 0.07169200000000001 0
4.701877 0.009505 0
4.67799 -0.052682 0
4.654102 -0.114868 0
4.630214 -0.177055 0
4.618899 0.715299 0
4.754009 0.26106 0
4.734478 0.326056 0
4.714948 0.391051 0
4.695417 0.456047 0
4.675886 0.521042 0
4.656356 0.5860379999999999 0
5.614325 0.271675 0
4.877655 0.205626 0
4.98177 0.215188 0
5.085885 0.22475 0
5.190001 0.234312 0
5.294116 0.243874 0
5.398231 0.253435 0
3.767801 0.221892 0
3.757906 -0.163432 0
3.766387 0.166846 0
3.764974 0.1118 0
3.76356 0.056753 0
3.762147 0.001707 0
3.760733 -0.053339 0
3.759319 -0.108386 0
3.777696 0.607216 0
3.769214 0.276938 0
3.770628 0.331984 0
3.772042 0.387031 0
3.773455 0.442077 0
3.774869 0.497123 0
3.776282 0.552169 0
5.676771 -0.237681 0
5.498561 -0.608786 0
5.651312 -0.290696 0
5.625854 -0.343711 0
5.600395 -0.396726 0
5.574936 -0.449741 0
5.549478 -0.502756 0
5.524019 -0.555771 0
5.854982 0.133424 0
5.70223 -0.184666 0
5.727688 -0.131651 0
5.753147 -0.078637 0
5.778606 -0.025621 0
5.804064 0.027394 0
5.829523 0.08040899999999999 0
5.604993 0.762543 0
5.821586 0.444637 0
5.635935 0.717128 0
5.666877 0.671713 0
5.697819 0.626298 0
5.728761 0.580883 0
5.759702 0.535467 0
5.790644 0.490052 0
5.388401 1.080448 0
5.574052 0.807958 0
5.54311 0.853373 0
5.512168 0.898788 0
5.481226 0.944203 0
5.450285 0.989618 0
5.419343 1.035033 0
6.953284 1.198413 0
6.76079 1.532937 0
6.791109 1.480968 0
6.821426 1.429 0
6.851745 1.377031 0
6.882063 1.325062 0
6.912381 1.273094 0
6.103431 1.752423 0
6.650754 1.61269 0
6.571036 1.640474 0
6.491319 1.668257 0
6.4116 1.696042 0
6.331882 1.723826 0
6.252164 1.75161 0
7.06838 2.191573 0
6.769015 1.665067 0
6.807559 1.745228 0
6.846102 1.825389 0
6.884645 1.90555 0
6.923189 1.985711 0
6.961732 2.065872 0
5.928839 0.992538 0
6.157102 0.6836370000000001 0
5.961448 0.9484089999999999 0
5.994057 0.904281 0
6.026666 0.860152 0
6.059275 0.8160230000000001 0
6.091884 0.771895 0
6.124493 0.727766 0
5.700577 1.301438 0
5.896231 1.036666 0
5.863622 1.080795 0
5.831013 1.124924 0
5.798404 1.169053 0
5.765795 1.213181 0
5.733186 1.25731 0
7.64092 1.974736 0
7.791806 1.622342 0
7.662475 1.924394 0
7.68403 1.874052 0
7.705585 1.82371 0
7.727141 1.773368 0
7.748696 1.723026 0
7.770251 1.672684 0
7.490035 2.327129 0
7.619365 2.025077 0
7.59781 2.075419 0
7.576255 2.125761 0
7.5547 2.176103 0
7.533145 2.226445 0
7.51159 2.276787 0
6.578578 2.098804 0
6.946191 2.207461 0
6.631094 2.114327 0
6.68361 2.129849 0
6.736126 2.145371 0
6.788642 2.160894 0
6.841158 2.176416 0
6.893674 2.191938 0
6.210965 1.990148 0
6.526062 2.083282 0
6.473546 2.06776 0
6.421029 2.052237 0
6.368513 2.036715 0
6.315997 2.021193 0
6.263481 2.00567 0
6.992686 3.049184 0
6.537587 3.145905 0
6.60255 3.126122 0
6.667513 3.10634 0
6.732477 3.086557 0
6.79744 3.066774 0
6.862403 3.046991 0
5.988466 2.872125 0
6.408092 3.126548 0
6.343559 3.087407 0
6.279027 3.048267 0
6.214494 3.009126 0
6.149962 2.969986 0
6.085429 2.930845 0
6.384338 3.797118 0
6.458152 3.241455 0
6.44368 3.317222 0
6.429207 3.392989 0
6.414735 3.468757 0
6.400263 3.544523 0
6.385791 3.62029 0
6.502812 2.629906 0
6.885519 2.651469 0
6.557484 2.632986 0
6.612157 2.636066 0
6.666829 2.639147 0
6.721502 2.642227 0
6.776175 2.645308 0
6.830847 2.648388 0
6.120104 2.608342 0
6.44814 2.626825 0
6.393467 2.623745 0
6.338795 2.620664 0
6.284122 2.617584 0
6.229449 2.614503 0
6.174777 2.611423 0
7.077756 3.955748 0
7.382059 3.722672 0
7.121228 3.922451 0
7.164699 3.889155 0
7.208171 3.855858 0
7.251643 3.822562 0
7.295115 3.789265 0
7.338587 3.755969 0
6.773453 4.188823 0
7.034284 3.989044 0
6.990812 4.022341 0
6.94734 4.055637 0
6.903868 4.088934 0
6.860396 4.12223 0
6.816925 4.155527 0
5.973636 3.43427 0
6.155307 3.77179 0
5.999589 3.482487 0
6.025542 3.530704 0
6.051495 3.578921 0
6.077448 3.627139 0
6.103401 3.675356 0
6.129354 3.723573 0
5.791965 3.096749 0
5.947683 3.386052 0
5.92173 3.337835 0
5.895777 3.289618 0
5.869824 3.241401 0
5.843871 3.193183 0
5.817918 3.144966 0
5.812952 4.391034 0
5.309664 4.297674 0
5.38172 4.306113 0
5.453775 4.314552 0
5.525832 4.322991 0
5.597888 4.33143 0
5.669943 4.339869 0
4.936844 4.05464 0
5.202119 4.253766 0
5.16663 4.218297 0
5.131141 4.182829 0
5.095651 4.14736 0
5.060162 4.111891 0
5.024673 4.076423 0
5.099121 5.100046 0
5.220493 4.389261 0
5.203378 4.489287 0
5.186262 4.589314 0
5.169147 4.689341 0
5.152031 4.789368 0
5.134916 4.889394 0
5.55988 3.822003 0
5.87541 4.039638 0
5.604956 3.853094 0
5.650031 3.884184 0
5.695107 3.915275 0
5.740183 3.946366 0
5.785258 3.977457 0
5.830334 4.008548 0
5.24435 3.604367 0
5.514804 3.790912 0
5.469729 3.759821 0
5.424653 3.728731 0
5.379577 3.69764 0
5.334501 3.666549 0
5.289426 3.635458 0
5.612485 5.211942 0
5.967603 5.067666 0
5.663216 5.191331 0
5.713947 5.17072 0
5.764678 5.150109 0
5.815409 5.129498 0
5.86614 5.108887 0
5.916872 5.088276 0
5.257367 5.356219 0
5.561754 5.232553 0
5.511023 5.253164 0
5.460292 5.273775 0
5.40956 5.294386 0
5.358829 5.314997 0
5.308098 5.335608 0
4.579276 5.032161 0
4.866155 5.286374 0
4.620259 5.068477 0
4.661241 5.104793 0
4.702224 5.141109 0
4.743207 5.177426 0
4.78419 5.213742 0
4.825172 5.250058 0
4.292397 4.777947 0
4.538293 4.995844 0
4.49731 4.959528 0
4.456328 4.923212 0
4.415345 4.886895 0
4.374362 4.850579 0
4.333379 4.814263 0
3.295724 0.221341 0
3.296173 -0.163535 0
3.295788 0.166359 0
3.295852 0.111377 0
3.295916 0.056394 0
3.29598 0.001412 0
3.296044 -0.053571 0
3.296108 -0.108553 0
3.295275 0.606218 0
3.295659 0.276323 0
3.295595 0.331306 0
3.295531 0.386288 0
3.295467 0.441271 0
3.295403 0.496253 0
3.295339 0.551235 0
2.823732 0.212314 0
2.824181 -0.172081 0
2.823796 0.157401 0
2.82386 0.102487 0
2.823924 0.047574 0
2.823988 -0.00734 0
2.824052 -0.062254 0
2.824116 -0.117168 0
2.823284 0.59671 0
2.823668 0.267228 0
2.823604 0.322142 0
2.82354 0.377055 0
2.823476 0.431969 0
2.823412 0.486883 0
2.823348 0.5417960000000001 0
2.351981 0.194753 0
2.359324 -0.189187 0
2.35303 0.139905 0
2.354079 0.08505600000000001 0
2.355128 0.030208 0
2.356177 -0.024641 0
2.357226 -0.07949000000000001 0
2.358275 -0.134338 0
2.344638 0.578693 0
2.350932 0.249602 0
2.349883 0.30445 0
2.348834 0.359299 0
2.347785 0.414148 0
2.346736 0.468996 0
2.345687 0.523845 0
1.880613 0.168868 0
1.894888 -0.214585 0
1.882653 0.114089 0
1.884692 0.05931 0
1.886731 0.004531 0
1.88877 -0.050248 0
1.890809 -0.105027 0
1.892848 -0.159806 0
1.866339 0.55232 0
1.878574 0.223646 0
1.876535 0.278425 0
1.874496 0.333204 0
1.872457 0.387983 0
1.870418 0.442762 0
1.868378 0.497541 0
1.409735 0.135222 0
1.430764 -0.247715 0
1.412739 0.08051700000000001 0
1.415743 0.025811 0
1.418747 -0.028894 0
1.421752 -0.08359900000000001 0
1.424756 -0.138305 0
1.42776 -0.19301 0
1.388705 0.518159 0
1.40673 0.189927 0
1.403726 0.244632 0
1.400722 0.299337 0
1.397718 0.354043 0
1.394714 0.408748 0
1.391709 0.463453 0
0.939387 0.09481000000000001 0
0.966712 -0.287603 0
0.94329 0.04018 0
0.947194 -0.01445 0
0.951097 -0.069081 0
0.955001 -0.123712 0
0.958904 -0.178342 0
0.962808 -0.232972 0
0.912062 0.477224 0
0.935483 0.149441 0
0.93158 0.204071 0
0.9276759999999999 0.258702 0
0.923773 0.313332 0
0.919869 0.367963 0
0.9159659999999999 0.422593 0
0.469523 0.049098 0
0.502337 -0.332821 0
0.474211 -0.005462 0
0.478899 -0.060021 0
0.483586 -0.114581 0
0.488274 -0.169141 0
0.492962 -0.223701 0
0.497649 -0.278261 0
0.436709 0.431017 0
0.464836 0.103658 0
0.460148 0.158218 0
0.45546 0.212778 0
0.450772 0.267338 0
0.446085 0.321897 0
0.441397 0.376457 0
0 0 0
0.037116 -0.381506 0
0.005302 -0.054501 0
0.010605 -0.109002 0
0.015907 -0.163502 0
0.021209 -0.218003 0
0.026511 -0.272504 0
0.031814 -0.327005 0
-0.037116 0.381506 0
-0.005302 0.054501 0
-0.010605 0.109002 0
-0.015907 0.163502 0
-0.021209 0.218003 0
-0.026511 0.272504 0
-0.031814 0.327005 0
6.151749 -0.34822 0
6.051936 -0.77711 0
6.13749 -0.40949 0
6.123231 -0.47076 0
6.108972 -0.53203 0
6.094713 -0.5933 0
6.080454 -0.65457 0
6.066195 -0.71584 0
6.251562 0.08067000000000001 0
6.166008 -0.28695 0
6.180267 -0.22568 0
6.194526 -0.16441 0
6.208785 -0.10314 0
6.223044 -0.04187 0
6.237303 0.0194 0
6.636617 -0.401424 0
6.583752 -0.883196 0
6.629065 -0.470249 0
6.621513 -0.539073 0
6.613961 -0.607898 0
6.606409 -0.676723 0
6.598857 -0.745547 0
6.591304 -0.814372 0
6.689482 0.080347 0
6.644169 -0.3326 0
6.651721 -0.263776 0
6.659273 -0.194951 0
6.666825 -0.126126 0
6.674377 -0.057302 0
6.68193 0.011523 0
7.124467 -0.405428 0
7.119944 -0.956669 0
7.123821 -0.484177 0
7.123175 -0.562925 0
7.122529 -0.641674 0
7.121882 -0.720423 0
7.121236 -0.799172 0
7.12059 -0.877921 0
7.128991 0.145814 0
7.125114 -0.326679 0
7.12576 -0.24793 0
7.126406 -0.169182 0
7.127052 -0.090432 0
7.127699 -0.011684 0
7.128345 0.067065 0
7.611008 -0.368775 0
7.660245 -1.022358 0
7.618042 -0.462144 0
7.625076 -0.555513 0
7.63211 -0.648882 0
7.639143 -0.742251 0
7.646177 -0.83562 0
7.653211 -0.928989 0
7.561772 0.284808 0
7.603974 -0.275406 0
7.596941 -0.182037 0
7.589907 -0.088668 0
7.582873 0.004701 0
7.575839 0.09807 0
7.568805 0.191439 0
8.094151999999999 -0.300904 0
8.210711999999999 -1.130633 0
8.110804 -0.419436 0
8.127454999999999 -0.537969 0
8.144106000000001 -0.656502 0
8.160758 -0.775035 0
8.177409000000001 -0.893568 0
8.19406 -1.012101 0
7.977593 0.528826 0
8.077501 -0.182371 0
8.06085 -0.06383800000000001 0
8.044198 0.054695 0
8.027547 0.173228 0
8.010896000000001 0.291761 0
7.994244 0.410293 0
8.572934999999999 -0.206811 0
8.774212 -1.230985 0
8.601689 -0.353121 0
8.630443 -0.499431 0
8.659197000000001 -0.645742 0
8.687950000000001 -0.792053 0
8.716704 -0.938364 0
8.745457999999999 -1.084674 0
8.371658999999999 0.817364 0
8.544181999999999 -0.0605 0
8.515428 0.08581 0
8.486674000000001 0.232121 0
8.45792 0.378432 0
8.429166 0.524743 0
8.400413 0.671053 0
9.047516 -0.09307699999999999 0
9.326362 -1.256629 0
9.087351 -0.259298 0
9.127186 -0.42552 0
9.167021 -0.591742 0
[...]
POINT_DATA 1470
SCALARS pact float 1
LOOKUP_TABLE default
0
-1
-1
-1
-1
-1
-1
0
-1
-1
-1
-1
-1
-1
0
-1
-1
-1
-1
-1
-1
-1
0
-1
-1
-1
-1
-1
-1
0
-1
-1
-1
-1
-1
-1
-1
0
-1
-1
-1
-1
-1
-1
0
-1
-1
-1
-1
-1
-1
-1
0
-1
-1
-1
-1
-1
-1
0
-1
-1
-1
-1
-1
-1
0
-1
-1
-1
-1
-1
-1
0
-1
-1
-1
-1
-1
-1
0
-1
-1
-1
-1
-1
-1
-1
0
-1
-1
-1
-1
-1
-1
0
-1
-1
-1
-1
-1
-1
-1
0
-1
-1
-1
-1
-1
-1
0
-1
-1
-1
-1
-1
-1
-1
0
-1
-1
-1
-1
-1
-1
0
-1
-1
-1
-1
-1
-1
0
-1
-1
-1
-1
-1
-1
0
-1
-1
-1
-1
-1
-1
0
-1
-1
-1
-1
-1
-1
-1
0
-1
-1
-1
-1
-1
-1
0
-1
-1
-1
-1
-1
-1
-1
0
-1
-1
-1
-1
-1
-1
0
-1
-1
-1
-1
-1
-1
-1
0
-1
-1
-1
-1
-1
-1
0
-1
-1
-1
-1
-1
-1
0
-1
-1
-1
-1
-1
-1
0
-1
-1
-1
-1
-1
-1
0
-1
-1
-1
-1
-1
-1
-1
0
-1
-1
-1
-1
-1
-1
0
-1
-1
-1
-1
-1
-1
-1
0
-1
-1
-1
-1
-1
-1
0
-1
-1
-1
-1
-1
-1
-1
0
-1
-1
-1
-1
-1
-1
0
-1
-1
-1
-1
-1
-1
-1
0
-1
-1
-1
-1
-1
-1
0
-1
-1
-1
-1
-1
-1
-1
0
-1
-1
-1
-1
-1
-1
0
-1
-1
-1
-1
-1
-1
-1
0
-1
-1
-1
-1
-1
-1
0
-1
-1
-1
-1
-1
-1
-1
0
-1
-1
-1
-1
-1
-1
0
-1
-1
-1
-1
-1
-1
-1
0
-1
-1
-1
-1
-1
-1
0
-1
-1
-1
-1
-1
-1
-1
0
-1
-1
-1
-1
-1
-1
0
-1
-1
-1
-1
-1
-1
-1
0
-1
-1
-1
-1
-1
-1
0
-1
-1
-1
-1
-1
-1
1
0
1
1
1
1
1
1
0
1
1
1
1
1
1
-1
0
-1
-1
-1
-1
-1
-1
0
-1
-1
-1
-1
-1
-1
-1
0
-1
-1
-1
-1
-1
-1
0
-1
-1
-1
-1
-1
-1
-1
0
-1
-1
-1
-1
-1
-1
0
-1
-1
-1
-1
-1
-1
-1
0
-1
-1
-1
-1
-1
-1
0
-1
-1
-1
-1
-1
-1
-1
0
-1
-1
-1
-1
-1
-1
0
-1
-1
-1
-1
-1
-1
-1
0
-1
-1
-1
-1
-1
-1
0
-1
-1
-1
-1
-1
-1
-1
0
-1
-1
-1
-1
-1
-1
0
-1
-1
-1
-1
-1
-1
-1
0
-1
-1
-1
-1
-1
-1
0
-1
-1
-1
-1
-1
-1
-1
0
-1
-1
-1
-1
-1
-1
0
-1
-1
-1
-1
-1
-1
-1
0
-1
-1
-1
-1
-1
-1
0
-1
-1
-1
-1
-1
-1
-1
0
-1
-1
-1
-1
-1
-1
0
-1
-1
-1
-1
-1
-1
-1
0
-1
-1
-1
-1
-1
-1
0
-1
-1
-1
-1
-1
-1
-1
0
-1
-1
-1
-1
-1
-1
0
-1
-1
-1
-1
-1
-1
-1
0
-1
-1
-1
-1
-1
-1
0
-1
-1
-1
-1
-1
-1
-1
0
-1
-1
-1
-1
-1
-1
0
-1
-1
-1
-1
-1
-1
-1
0
-1
-1
-1
-1
-1
-1
0
-1
-1
-1
-1
-1
-1
-1
0
-1
-1
-1
-1
-1
-1
0
-1
-1
-1
-1
-1
-1
-1
0
-1
-1
-1
-1
-1
-1
0
-1
-1
-1
-1
-1
-1
-1
0
-1
-1
-1
-1
-1
-1
0
-1
-1
-1
-1
-1
-1
-1
0
-1
-1
-1
-1
-1
-1
0
-1
-1
-1
-1
-1
-1
-1
0
-1
-1
-1
-1
-1
-1
0
-1
-1
-1
-1
-1
-1
-1
0
-1
-1
-1
-1
-1
-1
0
-1
-1
-1
-1
-1
-1
-1
0
-1
-1
-1
-1
-1
-1
0
-1
-1
-1
-1
-1
-1
-1
0
-1
-1
-1
-1
-1
-1
0
-1
-1
-1
-1
-1
-1
-1
0
-1
-1
-1
-1
-1
-1
0
-1
-1
-1
-1
-1
-1
-1
0
-1
-1
-1
-1
-1
-1
0
-1
-1
-1
-1
-1
-1
-1
0
-1
-1
-1
-1
-1
-1
0
-1
-1
-1
-1
-1
-1
-1
0
-1
-1
-1
-1
-1
-1
0
-1
-1
-1
-1
-1
-1
-1
0
-1
-1
-1
-1
-1
-1
0
-1
-1
-1
-1
-1
-1
2
0
2
2
2
2
2
2
0
2
2
2
2
2
2
-1
0
-1
-1
-1
-1
-1
-1
0
-1
-1
-1
-1
-1
-1
-1
0
-1
-1
-1
-1
-1
-1
0
-1
-1
-1
-1
-1
-1
-1
0
-1
-1
-1
-1
-1
-1
0
-1
-1
-1
-1
-1
-1
-1
0
-1
-1
-1
-1
-1
-1
0
-1
-1
-1
-1
-1
-1
-1
0
-1
-1
-1
-1
-1
-1
0
-1
-1
-1
-1
-1
-1
-1
0
-1
-1
-1
-1
-1
-1
0
-1
-1
-1
-1
-1
-1
3
0
3
3
3
3
3
3
0
3
3
3
3
3
3
-1
0
-1
-1
-1
-1
-1
-1
0
-1
-1
-1
-1
-1
-1
-1
0
-1
-1
-1
-1
-1
-1
0
-1
-1
-1
-1
-1
-1
-1
0
-1
-1
-1
-1
-1
-1
0
-1
-1
-1
-1
-1
-1
4
0
4
4
4
4
4
4
0
4
4
4
4
4
4
-1
0
-1
-1
-1
-1
-1
-1
0
-1
-1
-1
-1
-1
-1
5
0
5
5
5
5
5
5
0
5
5
5
5
5
5
-1
0
-1
-1
-1
-1
-1
-1
0
-1
-1
-1
-1
-1
-1
-1
0
-1
-1
-1
-1
-1
-1
0
-1
-1
-1
-1
-1
-1
6
0
6
6
6
6
6
6
0
6
6
6
6
6
6
-1
0
-1
-1
-1
-1
-1
-1
0
-1
-1
-1
-1
-1
-1
-1
0
-1
-1
-1
-1
-1
-1
0
-1
-1
-1
-1
-1
-1
-1
0
-1
-1
-1
-1
-1
-1
0
-1
-1
-1
-1
-1
-1
-1
0
-1
-1
-1
-1
-1
-1
0
-1
-1
-1
-1
-1
-1
-1
0
-1
-1
-1
-1
-1
-1
0
-1
-1
-1
-1
-1
-1
-1
0
-1
-1
-1
-1
-1
-1
0
-1
-1
-1
-1
-1
-1
-1
0
-1
-1
-1
-1
-1
-1
0
-1
-1
-1
-1
-1
-1
-1
0
-1
-1
-1
-1
-1
-1
0
-1
-1
-1
-1
-1
-1
-1
0
-1
-1
-1
-1
-1
-1
0
-1
-1
-1
-1
-1
-1
-1
0
-1
-1
-1
-1
-1
-1
0
-1
-1
-1
-1
-1
-1
-1
0
-1
-1
-1
-1
-1
-1
0
-1
-1
-1
-1
-1
-1
-1
0
-1
-1
-1
-1
-1
-1
0
-1
-1
-1
-1
-1
-1
-1
0
-1
-1
-1
-1
-1
-1
0
-1
-1
-1
-1
-1
-1
-1
0
-1
-1
-1
-1
-1
-1
0
-1
-1
-1
-1
-1
-1
-1
0
-1
-1
-1
-1
-1
-1
0
-1
-1
-1
-1
-1
-1
-1
0
-1
-1
-1
-1
-1
-1
0
-1
-1
-1
-1
-1
-1
-1
0
-1
-1
-1
-1
-1
-1
0
-1
-1
-1
-1
-1
-1
-1
0
-1
-1
-1
-1
-1
-1
0
-1
-1
-1
-1
-1
-1
-1
0
-1
-1
-1
-1
-1
-1
0
-1
-1
-1
-1
-1
-1
-1
0
-1
-1
-1
-1
-1
-1
0
-1
-1
-1
-1
-1
-1
-1
-1
-1
-1
-1
-1
-1
-1
-1
-1
-1
-1
-1
-1
-1
-1
-1
-1
-1
-1
-1
-1
-1
-1
-1
-1
-1
-1
-1
-1
-1
-1
-1
-1
-1
-1
-1
-1
-1
-1
-1
-1
-1
-1
-1
-1
-1
-1
-1
-1
-1
-1
-1
-1
-1
-1
-1
-1
-1
-1
-1
-1
-1
-1
-1
-1
-1
-1
-1
-1
-1
-1
-1
-1
-1
-1
-1
-1
-1
-1
-1
-1
-1
-1
-1
-1
-1
-1
-1
-1
-1
-1
-1
-1
-1
-1
